+ 1 0 2 tcp 40 ------- 0 0.0 4.0 0 0
- 1 0 2 tcp 40 ------- 0 0.0 4.0 0 0
h 1 5 6 tcp 40 ------- 0 5.0 1.0 0 1
r 1.001032 0 2 tcp 40 ------- 0 0.0 4.0 0 0
+ 1.001032 2 3 tcp 40 ------- 0 0.0 4.0 0 0
- 1.001032 2 3 tcp 40 ------- 0 0.0 4.0 0 0
r 1.002064 2 3 tcp 40 ------- 0 0.0 4.0 0 0
h 1.002064 3 6 tcp 40 ------- 0 0.0 4.0 0 0
+ 1.04 5 6 tcp 40 ------- 0 5.0 1.0 0 1
- 1.04 5 6 tcp 40 ------- 0 5.0 1.0 0 1
d 1.040004 4 6 tcp 40 ------- 0 5.0 1.0 0 1
+ 1.042064 3 6 tcp 40 ------- 0 0.0 4.0 0 0
- 1.042064 3 6 tcp 40 ------- 0 0.0 4.0 0 0
d 1.042068 5 6 tcp 40 ------- 0 0.0 4.0 0 0
r 1.080004 6 3 tcp 40 ------- 0 5.0 1.0 0 1
+ 1.080004 3 2 tcp 40 ------- 0 5.0 1.0 0 1
- 1.080004 3 2 tcp 40 ------- 0 5.0 1.0 0 1
r 1.081036 3 2 tcp 40 ------- 0 5.0 1.0 0 1
+ 1.081036 2 1 tcp 40 ------- 0 5.0 1.0 0 1
- 1.081036 2 1 tcp 40 ------- 0 5.0 1.0 0 1
r 1.082068 6 4 tcp 40 ------- 0 0.0 4.0 0 0
h 1.082068 4 6 ack 40 ------- 0 4.0 0.0 0 2
r 1.082068 2 1 tcp 40 ------- 0 5.0 1.0 0 1
+ 1.082068 1 2 ack 40 ------- 0 1.0 5.0 0 3
- 1.082068 1 2 ack 40 ------- 0 1.0 5.0 0 3
r 1.0831 1 2 ack 40 ------- 0 1.0 5.0 0 3
+ 1.0831 2 3 ack 40 ------- 0 1.0 5.0 0 3
- 1.0831 2 3 ack 40 ------- 0 1.0 5.0 0 3
r 1.084132 2 3 ack 40 ------- 0 1.0 5.0 0 3
h 1.084132 3 6 ack 40 ------- 0 1.0 5.0 0 3
+ 1.122068 4 6 ack 40 ------- 0 4.0 0.0 0 2
- 1.122068 4 6 ack 40 ------- 0 4.0 0.0 0 2
d 1.122072 5 6 ack 40 ------- 0 4.0 0.0 0 2
+ 1.124132 3 6 ack 40 ------- 0 1.0 5.0 0 3
- 1.124132 3 6 ack 40 ------- 0 1.0 5.0 0 3
d 1.124136 4 6 ack 40 ------- 0 1.0 5.0 0 3
r 1.162072 6 3 ack 40 ------- 0 4.0 0.0 0 2
+ 1.162072 3 2 ack 40 ------- 0 4.0 0.0 0 2
- 1.162072 3 2 ack 40 ------- 0 4.0 0.0 0 2
r 1.163104 3 2 ack 40 ------- 0 4.0 0.0 0 2
+ 1.163104 2 0 ack 40 ------- 0 4.0 0.0 0 2
- 1.163104 2 0 ack 40 ------- 0 4.0 0.0 0 2
r 1.164136 6 5 ack 40 ------- 0 1.0 5.0 0 3
h 1.164136 5 6 tcp 1540 ------- 0 5.0 1.0 1 4
h 1.164136 5 6 tcp 1540 ------- 0 5.0 1.0 2 5
r 1.164136 2 0 ack 40 ------- 0 4.0 0.0 0 2
+ 1.164136 0 2 tcp 1540 ------- 0 0.0 4.0 1 6
- 1.164136 0 2 tcp 1540 ------- 0 0.0 4.0 1 6
+ 1.164136 0 2 tcp 1540 ------- 0 0.0 4.0 2 7
- 1.165368 0 2 tcp 1540 ------- 0 0.0 4.0 2 7
r 1.166368 0 2 tcp 1540 ------- 0 0.0 4.0 1 6
+ 1.166368 2 3 tcp 1540 ------- 0 0.0 4.0 1 6
- 1.166368 2 3 tcp 1540 ------- 0 0.0 4.0 1 6
r 1.1676 0 2 tcp 1540 ------- 0 0.0 4.0 2 7
+ 1.1676 2 3 tcp 1540 ------- 0 0.0 4.0 2 7
- 1.1676 2 3 tcp 1540 ------- 0 0.0 4.0 2 7
r 1.1686 2 3 tcp 1540 ------- 0 0.0 4.0 1 6
h 1.1686 3 6 tcp 1540 ------- 0 0.0 4.0 1 6
r 1.169832 2 3 tcp 1540 ------- 0 0.0 4.0 2 7
h 1.169832 3 6 tcp 1540 ------- 0 0.0 4.0 2 7
+ 1.204136 5 6 tcp 1540 ------- 0 5.0 1.0 1 4
- 1.204136 5 6 tcp 1540 ------- 0 5.0 1.0 1 4
+ 1.204136 5 6 tcp 1540 ------- 0 5.0 1.0 2 5
d 1.20414 4 6 tcp 1540 ------- 0 5.0 1.0 1 4
+ 1.2086 3 6 tcp 1540 ------- 0 0.0 4.0 1 6
- 1.2086 3 6 tcp 1540 ------- 0 0.0 4.0 1 6
d 1.208604 5 6 tcp 1540 ------- 0 0.0 4.0 1 6
+ 1.209832 3 6 tcp 1540 ------- 0 0.0 4.0 2 7
- 1.210552 5 6 tcp 1540 ------- 0 5.0 1.0 2 5
d 1.210556 4 6 tcp 1540 ------- 0 5.0 1.0 2 5
- 1.215016 3 6 tcp 1540 ------- 0 0.0 4.0 2 7
d 1.21502 5 6 tcp 1540 ------- 0 0.0 4.0 2 7
r 1.24414 6 3 tcp 1540 ------- 0 5.0 1.0 1 4
+ 1.24414 3 2 tcp 1540 ------- 0 5.0 1.0 1 4
- 1.24414 3 2 tcp 1540 ------- 0 5.0 1.0 1 4
r 1.246372 3 2 tcp 1540 ------- 0 5.0 1.0 1 4
+ 1.246372 2 1 tcp 1540 ------- 0 5.0 1.0 1 4
- 1.246372 2 1 tcp 1540 ------- 0 5.0 1.0 1 4
r 1.248604 6 4 tcp 1540 ------- 0 0.0 4.0 1 6
h 1.248604 4 6 ack 40 ------- 0 4.0 0.0 1 8
r 1.248604 2 1 tcp 1540 ------- 0 5.0 1.0 1 4
+ 1.248604 1 2 ack 40 ------- 0 1.0 5.0 1 9
- 1.248604 1 2 ack 40 ------- 0 1.0 5.0 1 9
r 1.249636 1 2 ack 40 ------- 0 1.0 5.0 1 9
+ 1.249636 2 3 ack 40 ------- 0 1.0 5.0 1 9
- 1.249636 2 3 ack 40 ------- 0 1.0 5.0 1 9
r 1.250556 6 3 tcp 1540 ------- 0 5.0 1.0 2 5
+ 1.250556 3 2 tcp 1540 ------- 0 5.0 1.0 2 5
- 1.250556 3 2 tcp 1540 ------- 0 5.0 1.0 2 5
r 1.250668 2 3 ack 40 ------- 0 1.0 5.0 1 9
h 1.250668 3 6 ack 40 ------- 0 1.0 5.0 1 9
r 1.252788 3 2 tcp 1540 ------- 0 5.0 1.0 2 5
+ 1.252788 2 1 tcp 1540 ------- 0 5.0 1.0 2 5
- 1.252788 2 1 tcp 1540 ------- 0 5.0 1.0 2 5
r 1.25502 6 4 tcp 1540 ------- 0 0.0 4.0 2 7
h 1.25502 4 6 ack 40 ------- 0 4.0 0.0 2 10
r 1.25502 2 1 tcp 1540 ------- 0 5.0 1.0 2 5
+ 1.25502 1 2 ack 40 ------- 0 1.0 5.0 2 11
- 1.25502 1 2 ack 40 ------- 0 1.0 5.0 2 11
r 1.256052 1 2 ack 40 ------- 0 1.0 5.0 2 11
+ 1.256052 2 3 ack 40 ------- 0 1.0 5.0 2 11
- 1.256052 2 3 ack 40 ------- 0 1.0 5.0 2 11
r 1.257084 2 3 ack 40 ------- 0 1.0 5.0 2 11
h 1.257084 3 6 ack 40 ------- 0 1.0 5.0 2 11
+ 1.288604 4 6 ack 40 ------- 0 4.0 0.0 1 8
- 1.288604 4 6 ack 40 ------- 0 4.0 0.0 1 8
d 1.288608 5 6 ack 40 ------- 0 4.0 0.0 1 8
+ 1.290668 3 6 ack 40 ------- 0 1.0 5.0 1 9
- 1.290668 3 6 ack 40 ------- 0 1.0 5.0 1 9
d 1.290672 4 6 ack 40 ------- 0 1.0 5.0 1 9
+ 1.29502 4 6 ack 40 ------- 0 4.0 0.0 2 10
- 1.29502 4 6 ack 40 ------- 0 4.0 0.0 2 10
d 1.295024 5 6 ack 40 ------- 0 4.0 0.0 2 10
+ 1.297084 3 6 ack 40 ------- 0 1.0 5.0 2 11
- 1.297084 3 6 ack 40 ------- 0 1.0 5.0 2 11
d 1.297088 4 6 ack 40 ------- 0 1.0 5.0 2 11
r 1.328608 6 3 ack 40 ------- 0 4.0 0.0 1 8
+ 1.328608 3 2 ack 40 ------- 0 4.0 0.0 1 8
- 1.328608 3 2 ack 40 ------- 0 4.0 0.0 1 8
r 1.32964 3 2 ack 40 ------- 0 4.0 0.0 1 8
+ 1.32964 2 0 ack 40 ------- 0 4.0 0.0 1 8
- 1.32964 2 0 ack 40 ------- 0 4.0 0.0 1 8
r 1.330672 6 5 ack 40 ------- 0 1.0 5.0 1 9
h 1.330672 5 6 tcp 1540 ------- 0 5.0 1.0 3 12
h 1.330672 5 6 tcp 1540 ------- 0 5.0 1.0 4 13
r 1.330672 2 0 ack 40 ------- 0 4.0 0.0 1 8
+ 1.330672 0 2 tcp 1540 ------- 0 0.0 4.0 3 14
- 1.330672 0 2 tcp 1540 ------- 0 0.0 4.0 3 14
+ 1.330672 0 2 tcp 1540 ------- 0 0.0 4.0 4 15
- 1.331904 0 2 tcp 1540 ------- 0 0.0 4.0 4 15
r 1.332904 0 2 tcp 1540 ------- 0 0.0 4.0 3 14
+ 1.332904 2 3 tcp 1540 ------- 0 0.0 4.0 3 14
- 1.332904 2 3 tcp 1540 ------- 0 0.0 4.0 3 14
r 1.334136 0 2 tcp 1540 ------- 0 0.0 4.0 4 15
+ 1.334136 2 3 tcp 1540 ------- 0 0.0 4.0 4 15
- 1.334136 2 3 tcp 1540 ------- 0 0.0 4.0 4 15
r 1.335024 6 3 ack 40 ------- 0 4.0 0.0 2 10
+ 1.335024 3 2 ack 40 ------- 0 4.0 0.0 2 10
- 1.335024 3 2 ack 40 ------- 0 4.0 0.0 2 10
r 1.335136 2 3 tcp 1540 ------- 0 0.0 4.0 3 14
h 1.335136 3 6 tcp 1540 ------- 0 0.0 4.0 3 14
r 1.336056 3 2 ack 40 ------- 0 4.0 0.0 2 10
+ 1.336056 2 0 ack 40 ------- 0 4.0 0.0 2 10
- 1.336056 2 0 ack 40 ------- 0 4.0 0.0 2 10
r 1.336368 2 3 tcp 1540 ------- 0 0.0 4.0 4 15
h 1.336368 3 6 tcp 1540 ------- 0 0.0 4.0 4 15
r 1.337088 6 5 ack 40 ------- 0 1.0 5.0 2 11
h 1.337088 5 6 tcp 1540 ------- 0 5.0 1.0 5 16
h 1.337088 5 6 tcp 1540 ------- 0 5.0 1.0 6 17
r 1.337088 2 0 ack 40 ------- 0 4.0 0.0 2 10
+ 1.337088 0 2 tcp 1540 ------- 0 0.0 4.0 5 18
- 1.337088 0 2 tcp 1540 ------- 0 0.0 4.0 5 18
+ 1.337088 0 2 tcp 1540 ------- 0 0.0 4.0 6 19
- 1.33832 0 2 tcp 1540 ------- 0 0.0 4.0 6 19
r 1.33932 0 2 tcp 1540 ------- 0 0.0 4.0 5 18
+ 1.33932 2 3 tcp 1540 ------- 0 0.0 4.0 5 18
- 1.33932 2 3 tcp 1540 ------- 0 0.0 4.0 5 18
r 1.340552 0 2 tcp 1540 ------- 0 0.0 4.0 6 19
+ 1.340552 2 3 tcp 1540 ------- 0 0.0 4.0 6 19
- 1.340552 2 3 tcp 1540 ------- 0 0.0 4.0 6 19
r 1.341552 2 3 tcp 1540 ------- 0 0.0 4.0 5 18
h 1.341552 3 6 tcp 1540 ------- 0 0.0 4.0 5 18
r 1.342784 2 3 tcp 1540 ------- 0 0.0 4.0 6 19
h 1.342784 3 6 tcp 1540 ------- 0 0.0 4.0 6 19
+ 1.370672 5 6 tcp 1540 ------- 0 5.0 1.0 3 12
- 1.370672 5 6 tcp 1540 ------- 0 5.0 1.0 3 12
+ 1.370672 5 6 tcp 1540 ------- 0 5.0 1.0 4 13
d 1.370676 4 6 tcp 1540 ------- 0 5.0 1.0 3 12
+ 1.375136 3 6 tcp 1540 ------- 0 0.0 4.0 3 14
- 1.375136 3 6 tcp 1540 ------- 0 0.0 4.0 3 14
d 1.37514 5 6 tcp 1540 ------- 0 0.0 4.0 3 14
+ 1.376368 3 6 tcp 1540 ------- 0 0.0 4.0 4 15
+ 1.377088 5 6 tcp 1540 ------- 0 5.0 1.0 5 16
+ 1.377088 5 6 tcp 1540 ------- 0 5.0 1.0 6 17
- 1.377088 5 6 tcp 1540 ------- 0 5.0 1.0 4 13
d 1.377092 4 6 tcp 1540 ------- 0 5.0 1.0 4 13
+ 1.381552 3 6 tcp 1540 ------- 0 0.0 4.0 5 18
- 1.381552 3 6 tcp 1540 ------- 0 0.0 4.0 4 15
d 1.381556 5 6 tcp 1540 ------- 0 0.0 4.0 4 15
+ 1.382784 3 6 tcp 1540 ------- 0 0.0 4.0 6 19
- 1.383504 5 6 tcp 1540 ------- 0 5.0 1.0 5 16
d 1.383508 4 6 tcp 1540 ------- 0 5.0 1.0 5 16
- 1.387968 3 6 tcp 1540 ------- 0 0.0 4.0 5 18
d 1.387972 5 6 tcp 1540 ------- 0 0.0 4.0 5 18
- 1.38992 5 6 tcp 1540 ------- 0 5.0 1.0 6 17
d 1.389924 4 6 tcp 1540 ------- 0 5.0 1.0 6 17
- 1.394384 3 6 tcp 1540 ------- 0 0.0 4.0 6 19
d 1.394388 5 6 tcp 1540 ------- 0 0.0 4.0 6 19
r 1.410676 6 3 tcp 1540 ------- 0 5.0 1.0 3 12
+ 1.410676 3 2 tcp 1540 ------- 0 5.0 1.0 3 12
- 1.410676 3 2 tcp 1540 ------- 0 5.0 1.0 3 12
r 1.412908 3 2 tcp 1540 ------- 0 5.0 1.0 3 12
+ 1.412908 2 1 tcp 1540 ------- 0 5.0 1.0 3 12
- 1.412908 2 1 tcp 1540 ------- 0 5.0 1.0 3 12
r 1.41514 6 4 tcp 1540 ------- 0 0.0 4.0 3 14
h 1.41514 4 6 ack 40 ------- 0 4.0 0.0 3 20
r 1.41514 2 1 tcp 1540 ------- 0 5.0 1.0 3 12
+ 1.41514 1 2 ack 40 ------- 0 1.0 5.0 3 21
- 1.41514 1 2 ack 40 ------- 0 1.0 5.0 3 21
r 1.416172 1 2 ack 40 ------- 0 1.0 5.0 3 21
+ 1.416172 2 3 ack 40 ------- 0 1.0 5.0 3 21
- 1.416172 2 3 ack 40 ------- 0 1.0 5.0 3 21
r 1.417092 6 3 tcp 1540 ------- 0 5.0 1.0 4 13
+ 1.417092 3 2 tcp 1540 ------- 0 5.0 1.0 4 13
- 1.417092 3 2 tcp 1540 ------- 0 5.0 1.0 4 13
r 1.417204 2 3 ack 40 ------- 0 1.0 5.0 3 21
h 1.417204 3 6 ack 40 ------- 0 1.0 5.0 3 21
r 1.419324 3 2 tcp 1540 ------- 0 5.0 1.0 4 13
+ 1.419324 2 1 tcp 1540 ------- 0 5.0 1.0 4 13
- 1.419324 2 1 tcp 1540 ------- 0 5.0 1.0 4 13
r 1.421556 6 4 tcp 1540 ------- 0 0.0 4.0 4 15
h 1.421556 4 6 ack 40 ------- 0 4.0 0.0 4 22
r 1.421556 2 1 tcp 1540 ------- 0 5.0 1.0 4 13
+ 1.421556 1 2 ack 40 ------- 0 1.0 5.0 4 23
- 1.421556 1 2 ack 40 ------- 0 1.0 5.0 4 23
r 1.422588 1 2 ack 40 ------- 0 1.0 5.0 4 23
+ 1.422588 2 3 ack 40 ------- 0 1.0 5.0 4 23
- 1.422588 2 3 ack 40 ------- 0 1.0 5.0 4 23
r 1.423508 6 3 tcp 1540 ------- 0 5.0 1.0 5 16
+ 1.423508 3 2 tcp 1540 ------- 0 5.0 1.0 5 16
- 1.423508 3 2 tcp 1540 ------- 0 5.0 1.0 5 16
r 1.42362 2 3 ack 40 ------- 0 1.0 5.0 4 23
h 1.42362 3 6 ack 40 ------- 0 1.0 5.0 4 23
r 1.42574 3 2 tcp 1540 ------- 0 5.0 1.0 5 16
+ 1.42574 2 1 tcp 1540 ------- 0 5.0 1.0 5 16
- 1.42574 2 1 tcp 1540 ------- 0 5.0 1.0 5 16
r 1.427972 6 4 tcp 1540 ------- 0 0.0 4.0 5 18
h 1.427972 4 6 ack 40 ------- 0 4.0 0.0 5 24
r 1.427972 2 1 tcp 1540 ------- 0 5.0 1.0 5 16
+ 1.427972 1 2 ack 40 ------- 0 1.0 5.0 5 25
- 1.427972 1 2 ack 40 ------- 0 1.0 5.0 5 25
r 1.429004 1 2 ack 40 ------- 0 1.0 5.0 5 25
+ 1.429004 2 3 ack 40 ------- 0 1.0 5.0 5 25
- 1.429004 2 3 ack 40 ------- 0 1.0 5.0 5 25
r 1.429924 6 3 tcp 1540 ------- 0 5.0 1.0 6 17
+ 1.429924 3 2 tcp 1540 ------- 0 5.0 1.0 6 17
- 1.429924 3 2 tcp 1540 ------- 0 5.0 1.0 6 17
r 1.430036 2 3 ack 40 ------- 0 1.0 5.0 5 25
h 1.430036 3 6 ack 40 ------- 0 1.0 5.0 5 25
r 1.432156 3 2 tcp 1540 ------- 0 5.0 1.0 6 17
+ 1.432156 2 1 tcp 1540 ------- 0 5.0 1.0 6 17
- 1.432156 2 1 tcp 1540 ------- 0 5.0 1.0 6 17
r 1.434388 6 4 tcp 1540 ------- 0 0.0 4.0 6 19
h 1.434388 4 6 ack 40 ------- 0 4.0 0.0 6 26
r 1.434388 2 1 tcp 1540 ------- 0 5.0 1.0 6 17
+ 1.434388 1 2 ack 40 ------- 0 1.0 5.0 6 27
- 1.434388 1 2 ack 40 ------- 0 1.0 5.0 6 27
r 1.43542 1 2 ack 40 ------- 0 1.0 5.0 6 27
+ 1.43542 2 3 ack 40 ------- 0 1.0 5.0 6 27
- 1.43542 2 3 ack 40 ------- 0 1.0 5.0 6 27
r 1.436452 2 3 ack 40 ------- 0 1.0 5.0 6 27
h 1.436452 3 6 ack 40 ------- 0 1.0 5.0 6 27
+ 1.45514 4 6 ack 40 ------- 0 4.0 0.0 3 20
- 1.45514 4 6 ack 40 ------- 0 4.0 0.0 3 20
d 1.455144 5 6 ack 40 ------- 0 4.0 0.0 3 20
+ 1.457204 3 6 ack 40 ------- 0 1.0 5.0 3 21
- 1.457204 3 6 ack 40 ------- 0 1.0 5.0 3 21
d 1.457208 4 6 ack 40 ------- 0 1.0 5.0 3 21
+ 1.461556 4 6 ack 40 ------- 0 4.0 0.0 4 22
- 1.461556 4 6 ack 40 ------- 0 4.0 0.0 4 22
d 1.46156 5 6 ack 40 ------- 0 4.0 0.0 4 22
+ 1.46362 3 6 ack 40 ------- 0 1.0 5.0 4 23
- 1.46362 3 6 ack 40 ------- 0 1.0 5.0 4 23
d 1.463624 4 6 ack 40 ------- 0 1.0 5.0 4 23
+ 1.467972 4 6 ack 40 ------- 0 4.0 0.0 5 24
- 1.467972 4 6 ack 40 ------- 0 4.0 0.0 5 24
d 1.467976 5 6 ack 40 ------- 0 4.0 0.0 5 24
+ 1.470036 3 6 ack 40 ------- 0 1.0 5.0 5 25
- 1.470036 3 6 ack 40 ------- 0 1.0 5.0 5 25
d 1.47004 4 6 ack 40 ------- 0 1.0 5.0 5 25
+ 1.474388 4 6 ack 40 ------- 0 4.0 0.0 6 26
- 1.474388 4 6 ack 40 ------- 0 4.0 0.0 6 26
d 1.474392 5 6 ack 40 ------- 0 4.0 0.0 6 26
+ 1.476452 3 6 ack 40 ------- 0 1.0 5.0 6 27
- 1.476452 3 6 ack 40 ------- 0 1.0 5.0 6 27
d 1.476456 4 6 ack 40 ------- 0 1.0 5.0 6 27
r 1.495144 6 3 ack 40 ------- 0 4.0 0.0 3 20
+ 1.495144 3 2 ack 40 ------- 0 4.0 0.0 3 20
- 1.495144 3 2 ack 40 ------- 0 4.0 0.0 3 20
r 1.496176 3 2 ack 40 ------- 0 4.0 0.0 3 20
+ 1.496176 2 0 ack 40 ------- 0 4.0 0.0 3 20
- 1.496176 2 0 ack 40 ------- 0 4.0 0.0 3 20
r 1.497208 6 5 ack 40 ------- 0 1.0 5.0 3 21
h 1.497208 5 6 tcp 1540 ------- 0 5.0 1.0 7 28
h 1.497208 5 6 tcp 1540 ------- 0 5.0 1.0 8 29
r 1.497208 2 0 ack 40 ------- 0 4.0 0.0 3 20
+ 1.497208 0 2 tcp 1540 ------- 0 0.0 4.0 7 30
- 1.497208 0 2 tcp 1540 ------- 0 0.0 4.0 7 30
+ 1.497208 0 2 tcp 1540 ------- 0 0.0 4.0 8 31
- 1.49844 0 2 tcp 1540 ------- 0 0.0 4.0 8 31
r 1.49944 0 2 tcp 1540 ------- 0 0.0 4.0 7 30
+ 1.49944 2 3 tcp 1540 ------- 0 0.0 4.0 7 30
- 1.49944 2 3 tcp 1540 ------- 0 0.0 4.0 7 30
r 1.500672 0 2 tcp 1540 ------- 0 0.0 4.0 8 31
+ 1.500672 2 3 tcp 1540 ------- 0 0.0 4.0 8 31
- 1.500672 2 3 tcp 1540 ------- 0 0.0 4.0 8 31
r 1.50156 6 3 ack 40 ------- 0 4.0 0.0 4 22
+ 1.50156 3 2 ack 40 ------- 0 4.0 0.0 4 22
- 1.50156 3 2 ack 40 ------- 0 4.0 0.0 4 22
r 1.501672 2 3 tcp 1540 ------- 0 0.0 4.0 7 30
h 1.501672 3 6 tcp 1540 ------- 0 0.0 4.0 7 30
r 1.502592 3 2 ack 40 ------- 0 4.0 0.0 4 22
+ 1.502592 2 0 ack 40 ------- 0 4.0 0.0 4 22
- 1.502592 2 0 ack 40 ------- 0 4.0 0.0 4 22
r 1.502904 2 3 tcp 1540 ------- 0 0.0 4.0 8 31
h 1.502904 3 6 tcp 1540 ------- 0 0.0 4.0 8 31
r 1.503624 6 5 ack 40 ------- 0 1.0 5.0 4 23
h 1.503624 5 6 tcp 1540 ------- 0 5.0 1.0 9 32
h 1.503624 5 6 tcp 1540 ------- 0 5.0 1.0 10 33
r 1.503624 2 0 ack 40 ------- 0 4.0 0.0 4 22
+ 1.503624 0 2 tcp 1540 ------- 0 0.0 4.0 9 34
- 1.503624 0 2 tcp 1540 ------- 0 0.0 4.0 9 34
+ 1.503624 0 2 tcp 1540 ------- 0 0.0 4.0 10 35
- 1.504856 0 2 tcp 1540 ------- 0 0.0 4.0 10 35
r 1.505856 0 2 tcp 1540 ------- 0 0.0 4.0 9 34
+ 1.505856 2 3 tcp 1540 ------- 0 0.0 4.0 9 34
- 1.505856 2 3 tcp 1540 ------- 0 0.0 4.0 9 34
r 1.507088 0 2 tcp 1540 ------- 0 0.0 4.0 10 35
+ 1.507088 2 3 tcp 1540 ------- 0 0.0 4.0 10 35
- 1.507088 2 3 tcp 1540 ------- 0 0.0 4.0 10 35
r 1.507976 6 3 ack 40 ------- 0 4.0 0.0 5 24
+ 1.507976 3 2 ack 40 ------- 0 4.0 0.0 5 24
- 1.507976 3 2 ack 40 ------- 0 4.0 0.0 5 24
r 1.508088 2 3 tcp 1540 ------- 0 0.0 4.0 9 34
h 1.508088 3 6 tcp 1540 ------- 0 0.0 4.0 9 34
r 1.509008 3 2 ack 40 ------- 0 4.0 0.0 5 24
+ 1.509008 2 0 ack 40 ------- 0 4.0 0.0 5 24
- 1.509008 2 0 ack 40 ------- 0 4.0 0.0 5 24
r 1.50932 2 3 tcp 1540 ------- 0 0.0 4.0 10 35
h 1.50932 3 6 tcp 1540 ------- 0 0.0 4.0 10 35
r 1.51004 6 5 ack 40 ------- 0 1.0 5.0 5 25
h 1.51004 5 6 tcp 1540 ------- 0 5.0 1.0 11 36
h 1.51004 5 6 tcp 1540 ------- 0 5.0 1.0 12 37
r 1.51004 2 0 ack 40 ------- 0 4.0 0.0 5 24
+ 1.51004 0 2 tcp 1540 ------- 0 0.0 4.0 11 38
- 1.51004 0 2 tcp 1540 ------- 0 0.0 4.0 11 38
+ 1.51004 0 2 tcp 1540 ------- 0 0.0 4.0 12 39
- 1.511272 0 2 tcp 1540 ------- 0 0.0 4.0 12 39
r 1.512272 0 2 tcp 1540 ------- 0 0.0 4.0 11 38
+ 1.512272 2 3 tcp 1540 ------- 0 0.0 4.0 11 38
- 1.512272 2 3 tcp 1540 ------- 0 0.0 4.0 11 38
r 1.513504 0 2 tcp 1540 ------- 0 0.0 4.0 12 39
+ 1.513504 2 3 tcp 1540 ------- 0 0.0 4.0 12 39
- 1.513504 2 3 tcp 1540 ------- 0 0.0 4.0 12 39
r 1.514392 6 3 ack 40 ------- 0 4.0 0.0 6 26
+ 1.514392 3 2 ack 40 ------- 0 4.0 0.0 6 26
- 1.514392 3 2 ack 40 ------- 0 4.0 0.0 6 26
r 1.514504 2 3 tcp 1540 ------- 0 0.0 4.0 11 38
h 1.514504 3 6 tcp 1540 ------- 0 0.0 4.0 11 38
r 1.515424 3 2 ack 40 ------- 0 4.0 0.0 6 26
+ 1.515424 2 0 ack 40 ------- 0 4.0 0.0 6 26
- 1.515424 2 0 ack 40 ------- 0 4.0 0.0 6 26
r 1.515736 2 3 tcp 1540 ------- 0 0.0 4.0 12 39
h 1.515736 3 6 tcp 1540 ------- 0 0.0 4.0 12 39
r 1.516456 6 5 ack 40 ------- 0 1.0 5.0 6 27
h 1.516456 5 6 tcp 1540 ------- 0 5.0 1.0 13 40
h 1.516456 5 6 tcp 1540 ------- 0 5.0 1.0 14 41
r 1.516456 2 0 ack 40 ------- 0 4.0 0.0 6 26
+ 1.516456 0 2 tcp 1540 ------- 0 0.0 4.0 13 42
- 1.516456 0 2 tcp 1540 ------- 0 0.0 4.0 13 42
+ 1.516456 0 2 tcp 1540 ------- 0 0.0 4.0 14 43
- 1.517688 0 2 tcp 1540 ------- 0 0.0 4.0 14 43
r 1.518688 0 2 tcp 1540 ------- 0 0.0 4.0 13 42
+ 1.518688 2 3 tcp 1540 ------- 0 0.0 4.0 13 42
- 1.518688 2 3 tcp 1540 ------- 0 0.0 4.0 13 42
r 1.51992 0 2 tcp 1540 ------- 0 0.0 4.0 14 43
+ 1.51992 2 3 tcp 1540 ------- 0 0.0 4.0 14 43
- 1.51992 2 3 tcp 1540 ------- 0 0.0 4.0 14 43
r 1.52092 2 3 tcp 1540 ------- 0 0.0 4.0 13 42
h 1.52092 3 6 tcp 1540 ------- 0 0.0 4.0 13 42
r 1.522152 2 3 tcp 1540 ------- 0 0.0 4.0 14 43
h 1.522152 3 6 tcp 1540 ------- 0 0.0 4.0 14 43
+ 1.537208 5 6 tcp 1540 ------- 0 5.0 1.0 7 28
- 1.537208 5 6 tcp 1540 ------- 0 5.0 1.0 7 28
+ 1.537208 5 6 tcp 1540 ------- 0 5.0 1.0 8 29
d 1.537212 4 6 tcp 1540 ------- 0 5.0 1.0 7 28
+ 1.541672 3 6 tcp 1540 ------- 0 0.0 4.0 7 30
- 1.541672 3 6 tcp 1540 ------- 0 0.0 4.0 7 30
d 1.541676 5 6 tcp 1540 ------- 0 0.0 4.0 7 30
+ 1.542904 3 6 tcp 1540 ------- 0 0.0 4.0 8 31
+ 1.543624 5 6 tcp 1540 ------- 0 5.0 1.0 9 32
+ 1.543624 5 6 tcp 1540 ------- 0 5.0 1.0 10 33
- 1.543624 5 6 tcp 1540 ------- 0 5.0 1.0 8 29
d 1.543628 4 6 tcp 1540 ------- 0 5.0 1.0 8 29
+ 1.548088 3 6 tcp 1540 ------- 0 0.0 4.0 9 34
- 1.548088 3 6 tcp 1540 ------- 0 0.0 4.0 8 31
d 1.548092 5 6 tcp 1540 ------- 0 0.0 4.0 8 31
+ 1.54932 3 6 tcp 1540 ------- 0 0.0 4.0 10 35
+ 1.55004 5 6 tcp 1540 ------- 0 5.0 1.0 11 36
+ 1.55004 5 6 tcp 1540 ------- 0 5.0 1.0 12 37
- 1.55004 5 6 tcp 1540 ------- 0 5.0 1.0 9 32
d 1.550044 4 6 tcp 1540 ------- 0 5.0 1.0 9 32
+ 1.554504 3 6 tcp 1540 ------- 0 0.0 4.0 11 38
- 1.554504 3 6 tcp 1540 ------- 0 0.0 4.0 9 34
d 1.554508 5 6 tcp 1540 ------- 0 0.0 4.0 9 34
+ 1.555736 3 6 tcp 1540 ------- 0 0.0 4.0 12 39
+ 1.556456 5 6 tcp 1540 ------- 0 5.0 1.0 13 40
+ 1.556456 5 6 tcp 1540 ------- 0 5.0 1.0 14 41
- 1.556456 5 6 tcp 1540 ------- 0 5.0 1.0 10 33
d 1.55646 4 6 tcp 1540 ------- 0 5.0 1.0 10 33
+ 1.56092 3 6 tcp 1540 ------- 0 0.0 4.0 13 42
- 1.56092 3 6 tcp 1540 ------- 0 0.0 4.0 10 35
d 1.560924 5 6 tcp 1540 ------- 0 0.0 4.0 10 35
+ 1.562152 3 6 tcp 1540 ------- 0 0.0 4.0 14 43
- 1.562872 5 6 tcp 1540 ------- 0 5.0 1.0 11 36
d 1.562876 4 6 tcp 1540 ------- 0 5.0 1.0 11 36
- 1.567336 3 6 tcp 1540 ------- 0 0.0 4.0 11 38
d 1.56734 5 6 tcp 1540 ------- 0 0.0 4.0 11 38
- 1.569288 5 6 tcp 1540 ------- 0 5.0 1.0 12 37
d 1.569292 4 6 tcp 1540 ------- 0 5.0 1.0 12 37
- 1.573752 3 6 tcp 1540 ------- 0 0.0 4.0 12 39
d 1.573756 5 6 tcp 1540 ------- 0 0.0 4.0 12 39
- 1.575704 5 6 tcp 1540 ------- 0 5.0 1.0 13 40
d 1.575708 4 6 tcp 1540 ------- 0 5.0 1.0 13 40
r 1.577212 6 3 tcp 1540 ------- 0 5.0 1.0 7 28
+ 1.577212 3 2 tcp 1540 ------- 0 5.0 1.0 7 28
- 1.577212 3 2 tcp 1540 ------- 0 5.0 1.0 7 28
r 1.579444 3 2 tcp 1540 ------- 0 5.0 1.0 7 28
+ 1.579444 2 1 tcp 1540 ------- 0 5.0 1.0 7 28
- 1.579444 2 1 tcp 1540 ------- 0 5.0 1.0 7 28
- 1.580168 3 6 tcp 1540 ------- 0 0.0 4.0 13 42
d 1.580172 5 6 tcp 1540 ------- 0 0.0 4.0 13 42
r 1.581676 6 4 tcp 1540 ------- 0 0.0 4.0 7 30
h 1.581676 4 6 ack 40 ------- 0 4.0 0.0 7 44
r 1.581676 2 1 tcp 1540 ------- 0 5.0 1.0 7 28
+ 1.581676 1 2 ack 40 ------- 0 1.0 5.0 7 45
- 1.581676 1 2 ack 40 ------- 0 1.0 5.0 7 45
- 1.58212 5 6 tcp 1540 ------- 0 5.0 1.0 14 41
d 1.582124 4 6 tcp 1540 ------- 0 5.0 1.0 14 41
r 1.582708 1 2 ack 40 ------- 0 1.0 5.0 7 45
+ 1.582708 2 3 ack 40 ------- 0 1.0 5.0 7 45
- 1.582708 2 3 ack 40 ------- 0 1.0 5.0 7 45
r 1.583628 6 3 tcp 1540 ------- 0 5.0 1.0 8 29
+ 1.583628 3 2 tcp 1540 ------- 0 5.0 1.0 8 29
- 1.583628 3 2 tcp 1540 ------- 0 5.0 1.0 8 29
r 1.58374 2 3 ack 40 ------- 0 1.0 5.0 7 45
h 1.58374 3 6 ack 40 ------- 0 1.0 5.0 7 45
r 1.58586 3 2 tcp 1540 ------- 0 5.0 1.0 8 29
+ 1.58586 2 1 tcp 1540 ------- 0 5.0 1.0 8 29
- 1.58586 2 1 tcp 1540 ------- 0 5.0 1.0 8 29
- 1.586584 3 6 tcp 1540 ------- 0 0.0 4.0 14 43
d 1.586588 5 6 tcp 1540 ------- 0 0.0 4.0 14 43
r 1.588092 6 4 tcp 1540 ------- 0 0.0 4.0 8 31
h 1.588092 4 6 ack 40 ------- 0 4.0 0.0 8 46
r 1.588092 2 1 tcp 1540 ------- 0 5.0 1.0 8 29
+ 1.588092 1 2 ack 40 ------- 0 1.0 5.0 8 47
- 1.588092 1 2 ack 40 ------- 0 1.0 5.0 8 47
r 1.589124 1 2 ack 40 ------- 0 1.0 5.0 8 47
+ 1.589124 2 3 ack 40 ------- 0 1.0 5.0 8 47
- 1.589124 2 3 ack 40 ------- 0 1.0 5.0 8 47
r 1.590044 6 3 tcp 1540 ------- 0 5.0 1.0 9 32
+ 1.590044 3 2 tcp 1540 ------- 0 5.0 1.0 9 32
- 1.590044 3 2 tcp 1540 ------- 0 5.0 1.0 9 32
r 1.590156 2 3 ack 40 ------- 0 1.0 5.0 8 47
h 1.590156 3 6 ack 40 ------- 0 1.0 5.0 8 47
r 1.592276 3 2 tcp 1540 ------- 0 5.0 1.0 9 32
+ 1.592276 2 1 tcp 1540 ------- 0 5.0 1.0 9 32
- 1.592276 2 1 tcp 1540 ------- 0 5.0 1.0 9 32
r 1.594508 6 4 tcp 1540 ------- 0 0.0 4.0 9 34
h 1.594508 4 6 ack 40 ------- 0 4.0 0.0 9 48
r 1.594508 2 1 tcp 1540 ------- 0 5.0 1.0 9 32
+ 1.594508 1 2 ack 40 ------- 0 1.0 5.0 9 49
- 1.594508 1 2 ack 40 ------- 0 1.0 5.0 9 49
r 1.59554 1 2 ack 40 ------- 0 1.0 5.0 9 49
+ 1.59554 2 3 ack 40 ------- 0 1.0 5.0 9 49
- 1.59554 2 3 ack 40 ------- 0 1.0 5.0 9 49
r 1.59646 6 3 tcp 1540 ------- 0 5.0 1.0 10 33
+ 1.59646 3 2 tcp 1540 ------- 0 5.0 1.0 10 33
- 1.59646 3 2 tcp 1540 ------- 0 5.0 1.0 10 33
r 1.596572 2 3 ack 40 ------- 0 1.0 5.0 9 49
h 1.596572 3 6 ack 40 ------- 0 1.0 5.0 9 49
r 1.598692 3 2 tcp 1540 ------- 0 5.0 1.0 10 33
+ 1.598692 2 1 tcp 1540 ------- 0 5.0 1.0 10 33
- 1.598692 2 1 tcp 1540 ------- 0 5.0 1.0 10 33
r 1.600924 6 4 tcp 1540 ------- 0 0.0 4.0 10 35
h 1.600924 4 6 ack 40 ------- 0 4.0 0.0 10 50
r 1.600924 2 1 tcp 1540 ------- 0 5.0 1.0 10 33
+ 1.600924 1 2 ack 40 ------- 0 1.0 5.0 10 51
- 1.600924 1 2 ack 40 ------- 0 1.0 5.0 10 51
r 1.601956 1 2 ack 40 ------- 0 1.0 5.0 10 51
+ 1.601956 2 3 ack 40 ------- 0 1.0 5.0 10 51
- 1.601956 2 3 ack 40 ------- 0 1.0 5.0 10 51
r 1.602876 6 3 tcp 1540 ------- 0 5.0 1.0 11 36
+ 1.602876 3 2 tcp 1540 ------- 0 5.0 1.0 11 36
- 1.602876 3 2 tcp 1540 ------- 0 5.0 1.0 11 36
r 1.602988 2 3 ack 40 ------- 0 1.0 5.0 10 51
h 1.602988 3 6 ack 40 ------- 0 1.0 5.0 10 51
r 1.605108 3 2 tcp 1540 ------- 0 5.0 1.0 11 36
+ 1.605108 2 1 tcp 1540 ------- 0 5.0 1.0 11 36
- 1.605108 2 1 tcp 1540 ------- 0 5.0 1.0 11 36
r 1.60734 6 4 tcp 1540 ------- 0 0.0 4.0 11 38
h 1.60734 4 6 ack 40 ------- 0 4.0 0.0 11 52
r 1.60734 2 1 tcp 1540 ------- 0 5.0 1.0 11 36
+ 1.60734 1 2 ack 40 ------- 0 1.0 5.0 11 53
- 1.60734 1 2 ack 40 ------- 0 1.0 5.0 11 53
r 1.608372 1 2 ack 40 ------- 0 1.0 5.0 11 53
+ 1.608372 2 3 ack 40 ------- 0 1.0 5.0 11 53
- 1.608372 2 3 ack 40 ------- 0 1.0 5.0 11 53
r 1.609292 6 3 tcp 1540 ------- 0 5.0 1.0 12 37
+ 1.609292 3 2 tcp 1540 ------- 0 5.0 1.0 12 37
- 1.609292 3 2 tcp 1540 ------- 0 5.0 1.0 12 37
r 1.609404 2 3 ack 40 ------- 0 1.0 5.0 11 53
h 1.609404 3 6 ack 40 ------- 0 1.0 5.0 11 53
r 1.611524 3 2 tcp 1540 ------- 0 5.0 1.0 12 37
+ 1.611524 2 1 tcp 1540 ------- 0 5.0 1.0 12 37
- 1.611524 2 1 tcp 1540 ------- 0 5.0 1.0 12 37
r 1.613756 6 4 tcp 1540 ------- 0 0.0 4.0 12 39
h 1.613756 4 6 ack 40 ------- 0 4.0 0.0 12 54
r 1.613756 2 1 tcp 1540 ------- 0 5.0 1.0 12 37
+ 1.613756 1 2 ack 40 ------- 0 1.0 5.0 12 55
- 1.613756 1 2 ack 40 ------- 0 1.0 5.0 12 55
r 1.614788 1 2 ack 40 ------- 0 1.0 5.0 12 55
+ 1.614788 2 3 ack 40 ------- 0 1.0 5.0 12 55
- 1.614788 2 3 ack 40 ------- 0 1.0 5.0 12 55
r 1.615708 6 3 tcp 1540 ------- 0 5.0 1.0 13 40
+ 1.615708 3 2 tcp 1540 ------- 0 5.0 1.0 13 40
- 1.615708 3 2 tcp 1540 ------- 0 5.0 1.0 13 40
r 1.61582 2 3 ack 40 ------- 0 1.0 5.0 12 55
h 1.61582 3 6 ack 40 ------- 0 1.0 5.0 12 55
r 1.61794 3 2 tcp 1540 ------- 0 5.0 1.0 13 40
+ 1.61794 2 1 tcp 1540 ------- 0 5.0 1.0 13 40
- 1.61794 2 1 tcp 1540 ------- 0 5.0 1.0 13 40
r 1.620172 6 4 tcp 1540 ------- 0 0.0 4.0 13 42
h 1.620172 4 6 ack 40 ------- 0 4.0 0.0 13 56
r 1.620172 2 1 tcp 1540 ------- 0 5.0 1.0 13 40
+ 1.620172 1 2 ack 40 ------- 0 1.0 5.0 13 57
- 1.620172 1 2 ack 40 ------- 0 1.0 5.0 13 57
r 1.621204 1 2 ack 40 ------- 0 1.0 5.0 13 57
+ 1.621204 2 3 ack 40 ------- 0 1.0 5.0 13 57
- 1.621204 2 3 ack 40 ------- 0 1.0 5.0 13 57
+ 1.621676 4 6 ack 40 ------- 0 4.0 0.0 7 44
- 1.621676 4 6 ack 40 ------- 0 4.0 0.0 7 44
d 1.62168 5 6 ack 40 ------- 0 4.0 0.0 7 44
r 1.622124 6 3 tcp 1540 ------- 0 5.0 1.0 14 41
+ 1.622124 3 2 tcp 1540 ------- 0 5.0 1.0 14 41
- 1.622124 3 2 tcp 1540 ------- 0 5.0 1.0 14 41
r 1.622236 2 3 ack 40 ------- 0 1.0 5.0 13 57
h 1.622236 3 6 ack 40 ------- 0 1.0 5.0 13 57
+ 1.62374 3 6 ack 40 ------- 0 1.0 5.0 7 45
- 1.62374 3 6 ack 40 ------- 0 1.0 5.0 7 45
d 1.623744 4 6 ack 40 ------- 0 1.0 5.0 7 45
r 1.624356 3 2 tcp 1540 ------- 0 5.0 1.0 14 41
+ 1.624356 2 1 tcp 1540 ------- 0 5.0 1.0 14 41
- 1.624356 2 1 tcp 1540 ------- 0 5.0 1.0 14 41
r 1.626588 6 4 tcp 1540 ------- 0 0.0 4.0 14 43
h 1.626588 4 6 ack 40 ------- 0 4.0 0.0 14 58
r 1.626588 2 1 tcp 1540 ------- 0 5.0 1.0 14 41
+ 1.626588 1 2 ack 40 ------- 0 1.0 5.0 14 59
- 1.626588 1 2 ack 40 ------- 0 1.0 5.0 14 59
r 1.62762 1 2 ack 40 ------- 0 1.0 5.0 14 59
+ 1.62762 2 3 ack 40 ------- 0 1.0 5.0 14 59
- 1.62762 2 3 ack 40 ------- 0 1.0 5.0 14 59
+ 1.628092 4 6 ack 40 ------- 0 4.0 0.0 8 46
- 1.628092 4 6 ack 40 ------- 0 4.0 0.0 8 46
d 1.628096 5 6 ack 40 ------- 0 4.0 0.0 8 46
r 1.628652 2 3 ack 40 ------- 0 1.0 5.0 14 59
h 1.628652 3 6 ack 40 ------- 0 1.0 5.0 14 59
+ 1.630156 3 6 ack 40 ------- 0 1.0 5.0 8 47
- 1.630156 3 6 ack 40 ------- 0 1.0 5.0 8 47
d 1.63016 4 6 ack 40 ------- 0 1.0 5.0 8 47
+ 1.634508 4 6 ack 40 ------- 0 4.0 0.0 9 48
- 1.634508 4 6 ack 40 ------- 0 4.0 0.0 9 48
d 1.634512 5 6 ack 40 ------- 0 4.0 0.0 9 48
+ 1.636572 3 6 ack 40 ------- 0 1.0 5.0 9 49
- 1.636572 3 6 ack 40 ------- 0 1.0 5.0 9 49
d 1.636576 4 6 ack 40 ------- 0 1.0 5.0 9 49
+ 1.640924 4 6 ack 40 ------- 0 4.0 0.0 10 50
- 1.640924 4 6 ack 40 ------- 0 4.0 0.0 10 50
d 1.640928 5 6 ack 40 ------- 0 4.0 0.0 10 50
+ 1.642988 3 6 ack 40 ------- 0 1.0 5.0 10 51
- 1.642988 3 6 ack 40 ------- 0 1.0 5.0 10 51
d 1.642992 4 6 ack 40 ------- 0 1.0 5.0 10 51
+ 1.64734 4 6 ack 40 ------- 0 4.0 0.0 11 52
- 1.64734 4 6 ack 40 ------- 0 4.0 0.0 11 52
d 1.647344 5 6 ack 40 ------- 0 4.0 0.0 11 52
+ 1.649404 3 6 ack 40 ------- 0 1.0 5.0 11 53
- 1.649404 3 6 ack 40 ------- 0 1.0 5.0 11 53
d 1.649408 4 6 ack 40 ------- 0 1.0 5.0 11 53
+ 1.653756 4 6 ack 40 ------- 0 4.0 0.0 12 54
- 1.653756 4 6 ack 40 ------- 0 4.0 0.0 12 54
d 1.65376 5 6 ack 40 ------- 0 4.0 0.0 12 54
+ 1.65582 3 6 ack 40 ------- 0 1.0 5.0 12 55
- 1.65582 3 6 ack 40 ------- 0 1.0 5.0 12 55
d 1.655824 4 6 ack 40 ------- 0 1.0 5.0 12 55
+ 1.660172 4 6 ack 40 ------- 0 4.0 0.0 13 56
- 1.660172 4 6 ack 40 ------- 0 4.0 0.0 13 56
d 1.660176 5 6 ack 40 ------- 0 4.0 0.0 13 56
r 1.66168 6 3 ack 40 ------- 0 4.0 0.0 7 44
+ 1.66168 3 2 ack 40 ------- 0 4.0 0.0 7 44
- 1.66168 3 2 ack 40 ------- 0 4.0 0.0 7 44
+ 1.662236 3 6 ack 40 ------- 0 1.0 5.0 13 57
- 1.662236 3 6 ack 40 ------- 0 1.0 5.0 13 57
d 1.66224 4 6 ack 40 ------- 0 1.0 5.0 13 57
r 1.662712 3 2 ack 40 ------- 0 4.0 0.0 7 44
+ 1.662712 2 0 ack 40 ------- 0 4.0 0.0 7 44
- 1.662712 2 0 ack 40 ------- 0 4.0 0.0 7 44
r 1.663744 6 5 ack 40 ------- 0 1.0 5.0 7 45
h 1.663744 5 6 tcp 1540 ------- 0 5.0 1.0 15 60
h 1.663744 5 6 tcp 1540 ------- 0 5.0 1.0 16 61
r 1.663744 2 0 ack 40 ------- 0 4.0 0.0 7 44
+ 1.663744 0 2 tcp 1540 ------- 0 0.0 4.0 15 62
- 1.663744 0 2 tcp 1540 ------- 0 0.0 4.0 15 62
+ 1.663744 0 2 tcp 1540 ------- 0 0.0 4.0 16 63
- 1.664976 0 2 tcp 1540 ------- 0 0.0 4.0 16 63
r 1.665976 0 2 tcp 1540 ------- 0 0.0 4.0 15 62
+ 1.665976 2 3 tcp 1540 ------- 0 0.0 4.0 15 62
- 1.665976 2 3 tcp 1540 ------- 0 0.0 4.0 15 62
+ 1.666588 4 6 ack 40 ------- 0 4.0 0.0 14 58
- 1.666588 4 6 ack 40 ------- 0 4.0 0.0 14 58
d 1.666592 5 6 ack 40 ------- 0 4.0 0.0 14 58
r 1.667208 0 2 tcp 1540 ------- 0 0.0 4.0 16 63
+ 1.667208 2 3 tcp 1540 ------- 0 0.0 4.0 16 63
- 1.667208 2 3 tcp 1540 ------- 0 0.0 4.0 16 63
r 1.668096 6 3 ack 40 ------- 0 4.0 0.0 8 46
+ 1.668096 3 2 ack 40 ------- 0 4.0 0.0 8 46
- 1.668096 3 2 ack 40 ------- 0 4.0 0.0 8 46
r 1.668208 2 3 tcp 1540 ------- 0 0.0 4.0 15 62
h 1.668208 3 6 tcp 1540 ------- 0 0.0 4.0 15 62
+ 1.668652 3 6 ack 40 ------- 0 1.0 5.0 14 59
- 1.668652 3 6 ack 40 ------- 0 1.0 5.0 14 59
d 1.668656 4 6 ack 40 ------- 0 1.0 5.0 14 59
r 1.669128 3 2 ack 40 ------- 0 4.0 0.0 8 46
+ 1.669128 2 0 ack 40 ------- 0 4.0 0.0 8 46
- 1.669128 2 0 ack 40 ------- 0 4.0 0.0 8 46
r 1.66944 2 3 tcp 1540 ------- 0 0.0 4.0 16 63
h 1.66944 3 6 tcp 1540 ------- 0 0.0 4.0 16 63
r 1.67016 6 5 ack 40 ------- 0 1.0 5.0 8 47
h 1.67016 5 6 tcp 1540 ------- 0 5.0 1.0 17 64
h 1.67016 5 6 tcp 1540 ------- 0 5.0 1.0 18 65
r 1.67016 2 0 ack 40 ------- 0 4.0 0.0 8 46
+ 1.67016 0 2 tcp 1540 ------- 0 0.0 4.0 17 66
- 1.67016 0 2 tcp 1540 ------- 0 0.0 4.0 17 66
+ 1.67016 0 2 tcp 1540 ------- 0 0.0 4.0 18 67
- 1.671392 0 2 tcp 1540 ------- 0 0.0 4.0 18 67
r 1.672392 0 2 tcp 1540 ------- 0 0.0 4.0 17 66
+ 1.672392 2 3 tcp 1540 ------- 0 0.0 4.0 17 66
- 1.672392 2 3 tcp 1540 ------- 0 0.0 4.0 17 66
r 1.673624 0 2 tcp 1540 ------- 0 0.0 4.0 18 67
+ 1.673624 2 3 tcp 1540 ------- 0 0.0 4.0 18 67
- 1.673624 2 3 tcp 1540 ------- 0 0.0 4.0 18 67
r 1.674512 6 3 ack 40 ------- 0 4.0 0.0 9 48
+ 1.674512 3 2 ack 40 ------- 0 4.0 0.0 9 48
- 1.674512 3 2 ack 40 ------- 0 4.0 0.0 9 48
r 1.674624 2 3 tcp 1540 ------- 0 0.0 4.0 17 66
h 1.674624 3 6 tcp 1540 ------- 0 0.0 4.0 17 66
r 1.675544 3 2 ack 40 ------- 0 4.0 0.0 9 48
+ 1.675544 2 0 ack 40 ------- 0 4.0 0.0 9 48
- 1.675544 2 0 ack 40 ------- 0 4.0 0.0 9 48
r 1.675856 2 3 tcp 1540 ------- 0 0.0 4.0 18 67
h 1.675856 3 6 tcp 1540 ------- 0 0.0 4.0 18 67
r 1.676576 6 5 ack 40 ------- 0 1.0 5.0 9 49
h 1.676576 5 6 tcp 1540 ------- 0 5.0 1.0 19 68