V -t * -v 1.0a5 -a 0
A -t * -n 1 -p 0 -o 0x7fffffff -c 30 -a 1
A -t * -h 1 -m 1073741823 -s 0
n -t * -a 0 -s 0 -S UP -v circle -c black -i black
n -t * -a 1 -s 1 -S UP -v circle -c black -i black
n -t * -a 2 -s 2 -S UP -v circle -c black -i black
l -t * -s 0 -d 1 -S UP -r 10000000 -D 0.001 -c black
l -t * -s 1 -d 2 -S UP -r 10000000 -D 0.001 -c black
+ -t 1 -s 0 -d 1 -p tcp -e 40 -c 0 -i 0 -a 0 -x {0.0 2.0 0 ------- null}
- -t 1 -s 0 -d 1 -p tcp -e 40 -c 0 -i 0 -a 0 -x {0.0 2.0 0 ------- null}
h -t 1 -s 0 -d 1 -p tcp -e 40 -c 0 -i 0 -a 0 -x {0.0 2.0 -1 ------- null}
r -t 1.001032 -s 0 -d 1 -p tcp -e 40 -c 0 -i 0 -a 0 -x {0.0 2.0 0 ------- null}
+ -t 1.001032 -s 1 -d 2 -p tcp -e 40 -c 0 -i 0 -a 0 -x {0.0 2.0 0 ------- null}
- -t 1.001032 -s 1 -d 2 -p tcp -e 40 -c 0 -i 0 -a 0 -x {0.0 2.0 0 ------- null}
h -t 1.001032 -s 1 -d 2 -p tcp -e 40 -c 0 -i 0 -a 0 -x {0.0 2.0 -1 ------- null}
r -t 1.002064 -s 1 -d 2 -p tcp -e 40 -c 0 -i 0 -a 0 -x {0.0 2.0 0 ------- null}
+ -t 1.002064 -s 2 -d 1 -p ack -e 40 -c 0 -i 1 -a 0 -x {2.0 0.0 0 ------- null}
- -t 1.002064 -s 2 -d 1 -p ack -e 40 -c 0 -i 1 -a 0 -x {2.0 0.0 0 ------- null}
h -t 1.002064 -s 2 -d 1 -p ack -e 40 -c 0 -i 1 -a 0 -x {2.0 0.0 -1 ------- null}
r -t 1.003096 -s 2 -d 1 -p ack -e 40 -c 0 -i 1 -a 0 -x {2.0 0.0 0 ------- null}
+ -t 1.003096 -s 1 -d 0 -p ack -e 40 -c 0 -i 1 -a 0 -x {2.0 0.0 0 ------- null}
- -t 1.003096 -s 1 -d 0 -p ack -e 40 -c 0 -i 1 -a 0 -x {2.0 0.0 0 ------- null}
h -t 1.003096 -s 1 -d 0 -p ack -e 40 -c 0 -i 1 -a 0 -x {2.0 0.0 -1 ------- null}
r -t 1.004128 -s 1 -d 0 -p ack -e 40 -c 0 -i 1 -a 0 -x {2.0 0.0 0 ------- null}
+ -t 1.004128 -s 0 -d 1 -p tcp -e 1540 -c 0 -i 2 -a 0 -x {0.0 2.0 1 ------- null}
- -t 1.004128 -s 0 -d 1 -p tcp -e 1540 -c 0 -i 2 -a 0 -x {0.0 2.0 1 ------- null}
h -t 1.004128 -s 0 -d 1 -p tcp -e 1540 -c 0 -i 2 -a 0 -x {0.0 2.0 -1 ------- null}
r -t 1.00636 -s 0 -d 1 -p tcp -e 1540 -c 0 -i 2 -a 0 -x {0.0 2.0 1 ------- null}
+ -t 1.00636 -s 1 -d 2 -p tcp -e 1540 -c 0 -i 2 -a 0 -x {0.0 2.0 1 ------- null}
- -t 1.00636 -s 1 -d 2 -p tcp -e 1540 -c 0 -i 2 -a 0 -x {0.0 2.0 1 ------- null}
h -t 1.00636 -s 1 -d 2 -p tcp -e 1540 -c 0 -i 2 -a 0 -x {0.0 2.0 -1 ------- null}
r -t 1.008592 -s 1 -d 2 -p tcp -e 1540 -c 0 -i 2 -a 0 -x {0.0 2.0 1 ------- null}
+ -t 1.008592 -s 2 -d 1 -p ack -e 40 -c 0 -i 3 -a 0 -x {2.0 0.0 1 ------- null}
- -t 1.008592 -s 2 -d 1 -p ack -e 40 -c 0 -i 3 -a 0 -x {2.0 0.0 1 ------- null}
h -t 1.008592 -s 2 -d 1 -p ack -e 40 -c 0 -i 3 -a 0 -x {2.0 0.0 -1 ------- null}
r -t 1.009624 -s 2 -d 1 -p ack -e 40 -c 0 -i 3 -a 0 -x {2.0 0.0 1 ------- null}
+ -t 1.009624 -s 1 -d 0 -p ack -e 40 -c 0 -i 3 -a 0 -x {2.0 0.0 1 ------- null}
- -t 1.009624 -s 1 -d 0 -p ack -e 40 -c 0 -i 3 -a 0 -x {2.0 0.0 1 ------- null}
h -t 1.009624 -s 1 -d 0 -p ack -e 40 -c 0 -i 3 -a 0 -x {2.0 0.0 -1 ------- null}
r -t 1.010656 -s 1 -d 0 -p ack -e 40 -c 0 -i 3 -a 0 -x {2.0 0.0 1 ------- null}
+ -t 1.08 -s 0 -d 1 -p tcp -e 1540 -c 0 -i 4 -a 0 -x {0.0 2.0 2 ------- null}
- -t 1.08 -s 0 -d 1 -p tcp -e 1540 -c 0 -i 4 -a 0 -x {0.0 2.0 2 ------- null}
h -t 1.08 -s 0 -d 1 -p tcp -e 1540 -c 0 -i 4 -a 0 -x {0.0 2.0 -1 ------- null}
r -t 1.082232 -s 0 -d 1 -p tcp -e 1540 -c 0 -i 4 -a 0 -x {0.0 2.0 2 ------- null}
+ -t 1.082232 -s 1 -d 2 -p tcp -e 1540 -c 0 -i 4 -a 0 -x {0.0 2.0 2 ------- null}
- -t 1.082232 -s 1 -d 2 -p tcp -e 1540 -c 0 -i 4 -a 0 -x {0.0 2.0 2 ------- null}
h -t 1.082232 -s 1 -d 2 -p tcp -e 1540 -c 0 -i 4 -a 0 -x {0.0 2.0 -1 ------- null}
r -t 1.084464 -s 1 -d 2 -p tcp -e 1540 -c 0 -i 4 -a 0 -x {0.0 2.0 2 ------- null}
+ -t 1.084464 -s 2 -d 1 -p ack -e 40 -c 0 -i 5 -a 0 -x {2.0 0.0 2 ------- null}
- -t 1.084464 -s 2 -d 1 -p ack -e 40 -c 0 -i 5 -a 0 -x {2.0 0.0 2 ------- null}
h -t 1.084464 -s 2 -d 1 -p ack -e 40 -c 0 -i 5 -a 0 -x {2.0 0.0 -1 ------- null}
r -t 1.085496 -s 2 -d 1 -p ack -e 40 -c 0 -i 5 -a 0 -x {2.0 0.0 2 ------- null}
+ -t 1.085496 -s 1 -d 0 -p ack -e 40 -c 0 -i 5 -a 0 -x {2.0 0.0 2 ------- null}
- -t 1.085496 -s 1 -d 0 -p ack -e 40 -c 0 -i 5 -a 0 -x {2.0 0.0 2 ------- null}
h -t 1.085496 -s 1 -d 0 -p ack -e 40 -c 0 -i 5 -a 0 -x {2.0 0.0 -1 ------- null}
r -t 1.086528 -s 1 -d 0 -p ack -e 40 -c 0 -i 5 -a 0 -x {2.0 0.0 2 ------- null}
+ -t 1.16 -s 0 -d 1 -p tcp -e 1540 -c 0 -i 6 -a 0 -x {0.0 2.0 3 ------- null}
- -t 1.16 -s 0 -d 1 -p tcp -e 1540 -c 0 -i 6 -a 0 -x {0.0 2.0 3 ------- null}
h -t 1.16 -s 0 -d 1 -p tcp -e 1540 -c 0 -i 6 -a 0 -x {0.0 2.0 -1 ------- null}
r -t 1.162232 -s 0 -d 1 -p tcp -e 1540 -c 0 -i 6 -a 0 -x {0.0 2.0 3 ------- null}
+ -t 1.162232 -s 1 -d 2 -p tcp -e 1540 -c 0 -i 6 -a 0 -x {0.0 2.0 3 ------- null}
- -t 1.162232 -s 1 -d 2 -p tcp -e 1540 -c 0 -i 6 -a 0 -x {0.0 2.0 3 ------- null}
h -t 1.162232 -s 1 -d 2 -p tcp -e 1540 -c 0 -i 6 -a 0 -x {0.0 2.0 -1 ------- null}
r -t 1.164464 -s 1 -d 2 -p tcp -e 1540 -c 0 -i 6 -a 0 -x {0.0 2.0 3 ------- null}
+ -t 1.164464 -s 2 -d 1 -p ack -e 40 -c 0 -i 7 -a 0 -x {2.0 0.0 3 ------- null}
- -t 1.164464 -s 2 -d 1 -p ack -e 40 -c 0 -i 7 -a 0 -x {2.0 0.0 3 ------- null}
h -t 1.164464 -s 2 -d 1 -p ack -e 40 -c 0 -i 7 -a 0 -x {2.0 0.0 -1 ------- null}
r -t 1.165496 -s 2 -d 1 -p ack -e 40 -c 0 -i 7 -a 0 -x {2.0 0.0 3 ------- null}
+ -t 1.165496 -s 1 -d 0 -p ack -e 40 -c 0 -i 7 -a 0 -x {2.0 0.0 3 ------- null}
- -t 1.165496 -s 1 -d 0 -p ack -e 40 -c 0 -i 7 -a 0 -x {2.0 0.0 3 ------- null}
h -t 1.165496 -s 1 -d 0 -p ack -e 40 -c 0 -i 7 -a 0 -x {2.0 0.0 -1 ------- null}
r -t 1.166528 -s 1 -d 0 -p ack -e 40 -c 0 -i 7 -a 0 -x {2.0 0.0 3 ------- null}
+ -t 1.24 -s 0 -d 1 -p tcp -e 1540 -c 0 -i 8 -a 0 -x {0.0 2.0 4 ------- null}
- -t 1.24 -s 0 -d 1 -p tcp -e 1540 -c 0 -i 8 -a 0 -x {0.0 2.0 4 ------- null}
h -t 1.24 -s 0 -d 1 -p tcp -e 1540 -c 0 -i 8 -a 0 -x {0.0 2.0 -1 ------- null}
r -t 1.242232 -s 0 -d 1 -p tcp -e 1540 -c 0 -i 8 -a 0 -x {0.0 2.0 4 ------- null}
+ -t 1.242232 -s 1 -d 2 -p tcp -e 1540 -c 0 -i 8 -a 0 -x {0.0 2.0 4 ------- null}
- -t 1.242232 -s 1 -d 2 -p tcp -e 1540 -c 0 -i 8 -a 0 -x {0.0 2.0 4 ------- null}
h -t 1.242232 -s 1 -d 2 -p tcp -e 1540 -c 0 -i 8 -a 0 -x {0.0 2.0 -1 ------- null}
r -t 1.244464 -s 1 -d 2 -p tcp -e 1540 -c 0 -i 8 -a 0 -x {0.0 2.0 4 ------- null}
+ -t 1.244464 -s 2 -d 1 -p ack -e 40 -c 0 -i 9 -a 0 -x {2.0 0.0 4 ------- null}
- -t 1.244464 -s 2 -d 1 -p ack -e 40 -c 0 -i 9 -a 0 -x {2.0 0.0 4 ------- null}
h -t 1.244464 -s 2 -d 1 -p ack -e 40 -c 0 -i 9 -a 0 -x {2.0 0.0 -1 ------- null}
r -t 1.245496 -s 2 -d 1 -p ack -e 40 -c 0 -i 9 -a 0 -x {2.0 0.0 4 ------- null}
+ -t 1.245496 -s 1 -d 0 -p ack -e 40 -c 0 -i 9 -a 0 -x {2.0 0.0 4 ------- null}
- -t 1.245496 -s 1 -d 0 -p ack -e 40 -c 0 -i 9 -a 0 -x {2.0 0.0 4 ------- null}
h -t 1.245496 -s 1 -d 0 -p ack -e 40 -c 0 -i 9 -a 0 -x {2.0 0.0 -1 ------- null}
r -t 1.246528 -s 1 -d 0 -p ack -e 40 -c 0 -i 9 -a 0 -x {2.0 0.0 4 ------- null}
+ -t 1.32 -s 0 -d 1 -p tcp -e 1540 -c 0 -i 10 -a 0 -x {0.0 2.0 5 ------- null}
- -t 1.32 -s 0 -d 1 -p tcp -e 1540 -c 0 -i 10 -a 0 -x {0.0 2.0 5 ------- null}
h -t 1.32 -s 0 -d 1 -p tcp -e 1540 -c 0 -i 10 -a 0 -x {0.0 2.0 -1 ------- null}
r -t 1.322232 -s 0 -d 1 -p tcp -e 1540 -c 0 -i 10 -a 0 -x {0.0 2.0 5 ------- null}
+ -t 1.322232 -s 1 -d 2 -p tcp -e 1540 -c 0 -i 10 -a 0 -x {0.0 2.0 5 ------- null}
- -t 1.322232 -s 1 -d 2 -p tcp -e 1540 -c 0 -i 10 -a 0 -x {0.0 2.0 5 ------- null}
h -t 1.322232 -s 1 -d 2 -p tcp -e 1540 -c 0 -i 10 -a 0 -x {0.0 2.0 -1 ------- null}
r -t 1.324464 -s 1 -d 2 -p tcp -e 1540 -c 0 -i 10 -a 0 -x {0.0 2.0 5 ------- null}
+ -t 1.324464 -s 2 -d 1 -p ack -e 40 -c 0 -i 11 -a 0 -x {2.0 0.0 5 ------- null}
- -t 1.324464 -s 2 -d 1 -p ack -e 40 -c 0 -i 11 -a 0 -x {2.0 0.0 5 ------- null}
h -t 1.324464 -s 2 -d 1 -p ack -e 40 -c 0 -i 11 -a 0 -x {2.0 0.0 -1 ------- null}
r -t 1.325496 -s 2 -d 1 -p ack -e 40 -c 0 -i 11 -a 0 -x {2.0 0.0 5 ------- null}
+ -t 1.325496 -s 1 -d 0 -p ack -e 40 -c 0 -i 11 -a 0 -x {2.0 0.0 5 ------- null}
- -t 1.325496 -s 1 -d 0 -p ack -e 40 -c 0 -i 11 -a 0 -x {2.0 0.0 5 ------- null}
h -t 1.325496 -s 1 -d 0 -p ack -e 40 -c 0 -i 11 -a 0 -x {2.0 0.0 -1 ------- null}
r -t 1.326528 -s 1 -d 0 -p ack -e 40 -c 0 -i 11 -a 0 -x {2.0 0.0 5 ------- null}
+ -t 1.4 -s 0 -d 1 -p tcp -e 1540 -c 0 -i 12 -a 0 -x {0.0 2.0 6 ------- null}
- -t 1.4 -s 0 -d 1 -p tcp -e 1540 -c 0 -i 12 -a 0 -x {0.0 2.0 6 ------- null}
h -t 1.4 -s 0 -d 1 -p tcp -e 1540 -c 0 -i 12 -a 0 -x {0.0 2.0 -1 ------- null}
r -t 1.402232 -s 0 -d 1 -p tcp -e 1540 -c 0 -i 12 -a 0 -x {0.0 2.0 6 ------- null}
+ -t 1.402232 -s 1 -d 2 -p tcp -e 1540 -c 0 -i 12 -a 0 -x {0.0 2.0 6 ------- null}
- -t 1.402232 -s 1 -d 2 -p tcp -e 1540 -c 0 -i 12 -a 0 -x {0.0 2.0 6 ------- null}
h -t 1.402232 -s 1 -d 2 -p tcp -e 1540 -c 0 -i 12 -a 0 -x {0.0 2.0 -1 ------- null}
r -t 1.404464 -s 1 -d 2 -p tcp -e 1540 -c 0 -i 12 -a 0 -x {0.0 2.0 6 ------- null}
+ -t 1.404464 -s 2 -d 1 -p ack -e 40 -c 0 -i 13 -a 0 -x {2.0 0.0 6 ------- null}
- -t 1.404464 -s 2 -d 1 -p ack -e 40 -c 0 -i 13 -a 0 -x {2.0 0.0 6 ------- null}
h -t 1.404464 -s 2 -d 1 -p ack -e 40 -c 0 -i 13 -a 0 -x {2.0 0.0 -1 ------- null}
r -t 1.405496 -s 2 -d 1 -p ack -e 40 -c 0 -i 13 -a 0 -x {2.0 0.0 6 ------- null}
+ -t 1.405496 -s 1 -d 0 -p ack -e 40 -c 0 -i 13 -a 0 -x {2.0 0.0 6 ------- null}
- -t 1.405496 -s 1 -d 0 -p ack -e 40 -c 0 -i 13 -a 0 -x {2.0 0.0 6 ------- null}
h -t 1.405496 -s 1 -d 0 -p ack -e 40 -c 0 -i 13 -a 0 -x {2.0 0.0 -1 ------- null}
r -t 1.406528 -s 1 -d 0 -p ack -e 40 -c 0 -i 13 -a 0 -x {2.0 0.0 6 ------- null}
+ -t 1.48 -s 0 -d 1 -p tcp -e 1540 -c 0 -i 14 -a 0 -x {0.0 2.0 7 ------- null}
- -t 1.48 -s 0 -d 1 -p tcp -e 1540 -c 0 -i 14 -a 0 -x {0.0 2.0 7 ------- null}
h -t 1.48 -s 0 -d 1 -p tcp -e 1540 -c 0 -i 14 -a 0 -x {0.0 2.0 -1 ------- null}
r -t 1.482232 -s 0 -d 1 -p tcp -e 1540 -c 0 -i 14 -a 0 -x {0.0 2.0 7 ------- null}
+ -t 1.482232 -s 1 -d 2 -p tcp -e 1540 -c 0 -i 14 -a 0 -x {0.0 2.0 7 ------- null}
- -t 1.482232 -s 1 -d 2 -p tcp -e 1540 -c 0 -i 14 -a 0 -x {0.0 2.0 7 ------- null}
h -t 1.482232 -s 1 -d 2 -p tcp -e 1540 -c 0 -i 14 -a 0 -x {0.0 2.0 -1 ------- null}
r -t 1.484464 -s 1 -d 2 -p tcp -e 1540 -c 0 -i 14 -a 0 -x {0.0 2.0 7 ------- null}
+ -t 1.484464 -s 2 -d 1 -p ack -e 40 -c 0 -i 15 -a 0 -x {2.0 0.0 7 ------- null}
- -t 1.484464 -s 2 -d 1 -p ack -e 40 -c 0 -i 15 -a 0 -x {2.0 0.0 7 ------- null}
h -t 1.484464 -s 2 -d 1 -p ack -e 40 -c 0 -i 15 -a 0 -x {2.0 0.0 -1 ------- null}
r -t 1.485496 -s 2 -d 1 -p ack -e 40 -c 0 -i 15 -a 0 -x {2.0 0.0 7 ------- null}
+ -t 1.485496 -s 1 -d 0 -p ack -e 40 -c 0 -i 15 -a 0 -x {2.0 0.0 7 ------- null}
- -t 1.485496 -s 1 -d 0 -p ack -e 40 -c 0 -i 15 -a 0 -x {2.0 0.0 7 ------- null}
h -t 1.485496 -s 1 -d 0 -p ack -e 40 -c 0 -i 15 -a 0 -x {2.0 0.0 -1 ------- null}
r -t 1.486528 -s 1 -d 0 -p ack -e 40 -c 0 -i 15 -a 0 -x {2.0 0.0 7 ------- null}
+ -t 1.56 -s 0 -d 1 -p tcp -e 1540 -c 0 -i 16 -a 0 -x {0.0 2.0 8 ------- null}
- -t 1.56 -s 0 -d 1 -p tcp -e 1540 -c 0 -i 16 -a 0 -x {0.0 2.0 8 ------- null}
h -t 1.56 -s 0 -d 1 -p tcp -e 1540 -c 0 -i 16 -a 0 -x {0.0 2.0 -1 ------- null}
r -t 1.562232 -s 0 -d 1 -p tcp -e 1540 -c 0 -i 16 -a 0 -x {0.0 2.0 8 ------- null}
+ -t 1.562232 -s 1 -d 2 -p tcp -e 1540 -c 0 -i 16 -a 0 -x {0.0 2.0 8 ------- null}
- -t 1.562232 -s 1 -d 2 -p tcp -e 1540 -c 0 -i 16 -a 0 -x {0.0 2.0 8 ------- null}
h -t 1.562232 -s 1 -d 2 -p tcp -e 1540 -c 0 -i 16 -a 0 -x {0.0 2.0 -1 ------- null}
r -t 1.564464 -s 1 -d 2 -p tcp -e 1540 -c 0 -i 16 -a 0 -x {0.0 2.0 8 ------- null}
+ -t 1.564464 -s 2 -d 1 -p ack -e 40 -c 0 -i 17 -a 0 -x {2.0 0.0 8 ------- null}
- -t 1.564464 -s 2 -d 1 -p ack -e 40 -c 0 -i 17 -a 0 -x {2.0 0.0 8 ------- null}
h -t 1.564464 -s 2 -d 1 -p ack -e 40 -c 0 -i 17 -a 0 -x {2.0 0.0 -1 ------- null}
r -t 1.565496 -s 2 -d 1 -p ack -e 40 -c 0 -i 17 -a 0 -x {2.0 0.0 8 ------- null}
+ -t 1.565496 -s 1 -d 0 -p ack -e 40 -c 0 -i 17 -a 0 -x {2.0 0.0 8 ------- null}
- -t 1.565496 -s 1 -d 0 -p ack -e 40 -c 0 -i 17 -a 0 -x {2.0 0.0 8 ------- null}
h -t 1.565496 -s 1 -d 0 -p ack -e 40 -c 0 -i 17 -a 0 -x {2.0 0.0 -1 ------- null}
r -t 1.566528 -s 1 -d 0 -p ack -e 40 -c 0 -i 17 -a 0 -x {2.0 0.0 8 ------- null}
+ -t 1.64 -s 0 -d 1 -p tcp -e 1540 -c 0 -i 18 -a 0 -x {0.0 2.0 9 ------- null}
- -t 1.64 -s 0 -d 1 -p tcp -e 1540 -c 0 -i 18 -a 0 -x {0.0 2.0 9 ------- null}
h -t 1.64 -s 0 -d 1 -p tcp -e 1540 -c 0 -i 18 -a 0 -x {0.0 2.0 -1 ------- null}
r -t 1.642232 -s 0 -d 1 -p tcp -e 1540 -c 0 -i 18 -a 0 -x {0.0 2.0 9 ------- null}
+ -t 1.642232 -s 1 -d 2 -p tcp -e 1540 -c 0 -i 18 -a 0 -x {0.0 2.0 9 ------- null}
- -t 1.642232 -s 1 -d 2 -p tcp -e 1540 -c 0 -i 18 -a 0 -x {0.0 2.0 9 ------- null}
h -t 1.642232 -s 1 -d 2 -p tcp -e 1540 -c 0 -i 18 -a 0 -x {0.0 2.0 -1 ------- null}
r -t 1.644464 -s 1 -d 2 -p tcp -e 1540 -c 0 -i 18 -a 0 -x {0.0 2.0 9 ------- null}
+ -t 1.644464 -s 2 -d 1 -p ack -e 40 -c 0 -i 19 -a 0 -x {2.0 0.0 9 ------- null}
- -t 1.644464 -s 2 -d 1 -p ack -e 40 -c 0 -i 19 -a 0 -x {2.0 0.0 9 ------- null}
h -t 1.644464 -s 2 -d 1 -p ack -e 40 -c 0 -i 19 -a 0 -x {2.0 0.0 -1 ------- null}
r -t 1.645496 -s 2 -d 1 -p ack -e 40 -c 0 -i 19 -a 0 -x {2.0 0.0 9 ------- null}
+ -t 1.645496 -s 1 -d 0 -p ack -e 40 -c 0 -i 19 -a 0 -x {2.0 0.0 9 ------- null}
- -t 1.645496 -s 1 -d 0 -p ack -e 40 -c 0 -i 19 -a 0 -x {2.0 0.0 9 ------- null}
h -t 1.645496 -s 1 -d 0 -p ack -e 40 -c 0 -i 19 -a 0 -x {2.0 0.0 -1 ------- null}
r -t 1.646528 -s 1 -d 0 -p ack -e 40 -c 0 -i 19 -a 0 -x {2.0 0.0 9 ------- null}
+ -t 1.72 -s 0 -d 1 -p tcp -e 1540 -c 0 -i 20 -a 0 -x {0.0 2.0 10 ------- null}
- -t 1.72 -s 0 -d 1 -p tcp -e 1540 -c 0 -i 20 -a 0 -x {0.0 2.0 10 ------- null}
h -t 1.72 -s 0 -d 1 -p tcp -e 1540 -c 0 -i 20 -a 0 -x {0.0 2.0 -1 ------- null}
r -t 1.722232 -s 0 -d 1 -p tcp -e 1540 -c 0 -i 20 -a 0 -x {0.0 2.0 10 ------- null}
+ -t 1.722232 -s 1 -d 2 -p tcp -e 1540 -c 0 -i 20 -a 0 -x {0.0 2.0 10 ------- null}
- -t 1.722232 -s 1 -d 2 -p tcp -e 1540 -c 0 -i 20 -a 0 -x {0.0 2.0 10 ------- null}
h -t 1.722232 -s 1 -d 2 -p tcp -e 1540 -c 0 -i 20 -a 0 -x {0.0 2.0 -1 ------- null}
r -t 1.724464 -s 1 -d 2 -p tcp -e 1540 -c 0 -i 20 -a 0 -x {0.0 2.0 10 ------- null}
+ -t 1.724464 -s 2 -d 1 -p ack -e 40 -c 0 -i 21 -a 0 -x {2.0 0.0 10 ------- null}
- -t 1.724464 -s 2 -d 1 -p ack -e 40 -c 0 -i 21 -a 0 -x {2.0 0.0 10 ------- null}
h -t 1.724464 -s 2 -d 1 -p ack -e 40 -c 0 -i 21 -a 0 -x {2.0 0.0 -1 ------- null}
r -t 1.725496 -s 2 -d 1 -p ack -e 40 -c 0 -i 21 -a 0 -x {2.0 0.0 10 ------- null}
+ -t 1.725496 -s 1 -d 0 -p ack -e 40 -c 0 -i 21 -a 0 -x {2.0 0.0 10 ------- null}
- -t 1.725496 -s 1 -d 0 -p ack -e 40 -c 0 -i 21 -a 0 -x {2.0 0.0 10 ------- null}
h -t 1.725496 -s 1 -d 0 -p ack -e 40 -c 0 -i 21 -a 0 -x {2.0 0.0 -1 ------- null}
r -t 1.726528 -s 1 -d 0 -p ack -e 40 -c 0 -i 21 -a 0 -x {2.0 0.0 10 ------- null}
+ -t 1.8 -s 0 -d 1 -p tcp -e 1540 -c 0 -i 22 -a 0 -x {0.0 2.0 11 ------- null}
- -t 1.8 -s 0 -d 1 -p tcp -e 1540 -c 0 -i 22 -a 0 -x {0.0 2.0 11 ------- null}
h -t 1.8 -s 0 -d 1 -p tcp -e 1540 -c 0 -i 22 -a 0 -x {0.0 2.0 -1 ------- null}
r -t 1.802232 -s 0 -d 1 -p tcp -e 1540 -c 0 -i 22 -a 0 -x {0.0 2.0 11 ------- null}
+ -t 1.802232 -s 1 -d 2 -p tcp -e 1540 -c 0 -i 22 -a 0 -x {0.0 2.0 11 ------- null}
- -t 1.802232 -s 1 -d 2 -p tcp -e 1540 -c 0 -i 22 -a 0 -x {0.0 2.0 11 ------- null}
h -t 1.802232 -s 1 -d 2 -p tcp -e 1540 -c 0 -i 22 -a 0 -x {0.0 2.0 -1 ------- null}
r -t 1.804464 -s 1 -d 2 -p tcp -e 1540 -c 0 -i 22 -a 0 -x {0.0 2.0 11 ------- null}
+ -t 1.804464 -s 2 -d 1 -p ack -e 40 -c 0 -i 23 -a 0 -x {2.0 0.0 11 ------- null}
- -t 1.804464 -s 2 -d 1 -p ack -e 40 -c 0 -i 23 -a 0 -x {2.0 0.0 11 ------- null}
h -t 1.804464 -s 2 -d 1 -p ack -e 40 -c 0 -i 23 -a 0 -x {2.0 0.0 -1 ------- null}
r -t 1.805496 -s 2 -d 1 -p ack -e 40 -c 0 -i 23 -a 0 -x {2.0 0.0 11 ------- null}
+ -t 1.805496 -s 1 -d 0 -p ack -e 40 -c 0 -i 23 -a 0 -x {2.0 0.0 11 ------- null}
- -t 1.805496 -s 1 -d 0 -p ack -e 40 -c 0 -i 23 -a 0 -x {2.0 0.0 11 ------- null}
h -t 1.805496 -s 1 -d 0 -p ack -e 40 -c 0 -i 23 -a 0 -x {2.0 0.0 -1 ------- null}
r -t 1.806528 -s 1 -d 0 -p ack -e 40 -c 0 -i 23 -a 0 -x {2.0 0.0 11 ------- null}
+ -t 1.88 -s 0 -d 1 -p tcp -e 1540 -c 0 -i 24 -a 0 -x {0.0 2.0 12 ------- null}
- -t 1.88 -s 0 -d 1 -p tcp -e 1540 -c 0 -i 24 -a 0 -x {0.0 2.0 12 ------- null}
h -t 1.88 -s 0 -d 1 -p tcp -e 1540 -c 0 -i 24 -a 0 -x {0.0 2.0 -1 ------- null}
r -t 1.882232 -s 0 -d 1 -p tcp -e 1540 -c 0 -i 24 -a 0 -x {0.0 2.0 12 ------- null}
+ -t 1.882232 -s 1 -d 2 -p tcp -e 1540 -c 0 -i 24 -a 0 -x {0.0 2.0 12 ------- null}
- -t 1.882232 -s 1 -d 2 -p tcp -e 1540 -c 0 -i 24 -a 0 -x {0.0 2.0 12 ------- null}
h -t 1.882232 -s 1 -d 2 -p tcp -e 1540 -c 0 -i 24 -a 0 -x {0.0 2.0 -1 ------- null}
r -t 1.884464 -s 1 -d 2 -p tcp -e 1540 -c 0 -i 24 -a 0 -x {0.0 2.0 12 ------- null}
+ -t 1.884464 -s 2 -d 1 -p ack -e 40 -c 0 -i 25 -a 0 -x {2.0 0.0 12 ------- null}
- -t 1.884464 -s 2 -d 1 -p ack -e 40 -c 0 -i 25 -a 0 -x {2.0 0.0 12 ------- null}
h -t 1.884464 -s 2 -d 1 -p ack -e 40 -c 0 -i 25 -a 0 -x {2.0 0.0 -1 ------- null}
r -t 1.885496 -s 2 -d 1 -p ack -e 40 -c 0 -i 25 -a 0 -x {2.0 0.0 12 ------- null}
+ -t 1.885496 -s 1 -d 0 -p ack -e 40 -c 0 -i 25 -a 0 -x {2.0 0.0 12 ------- null}
- -t 1.885496 -s 1 -d 0 -p ack -e 40 -c 0 -i 25 -a 0 -x {2.0 0.0 12 ------- null}
h -t 1.885496 -s 1 -d 0 -p ack -e 40 -c 0 -i 25 -a 0 -x {2.0 0.0 -1 ------- null}
r -t 1.886528 -s 1 -d 0 -p ack -e 40 -c 0 -i 25 -a 0 -x {2.0 0.0 12 ------- null}
+ -t 1.96 -s 0 -d 1 -p tcp -e 1540 -c 0 -i 26 -a 0 -x {0.0 2.0 13 ------- null}
- -t 1.96 -s 0 -d 1 -p tcp -e 1540 -c 0 -i 26 -a 0 -x {0.0 2.0 13 ------- null}
h -t 1.96 -s 0 -d 1 -p tcp -e 1540 -c 0 -i 26 -a 0 -x {0.0 2.0 -1 ------- null}
r -t 1.962232 -s 0 -d 1 -p tcp -e 1540 -c 0 -i 26 -a 0 -x {0.0 2.0 13 ------- null}
+ -t 1.962232 -s 1 -d 2 -p tcp -e 1540 -c 0 -i 26 -a 0 -x {0.0 2.0 13 ------- null}
- -t 1.962232 -s 1 -d 2 -p tcp -e 1540 -c 0 -i 26 -a 0 -x {0.0 2.0 13 ------- null}
h -t 1.962232 -s 1 -d 2 -p tcp -e 1540 -c 0 -i 26 -a 0 -x {0.0 2.0 -1 ------- null}
r -t 1.964464 -s 1 -d 2 -p tcp -e 1540 -c 0 -i 26 -a 0 -x {0.0 2.0 13 ------- null}
+ -t 1.964464 -s 2 -d 1 -p ack -e 40 -c 0 -i 27 -a 0 -x {2.0 0.0 13 ------- null}
- -t 1.964464 -s 2 -d 1 -p ack -e 40 -c 0 -i 27 -a 0 -x {2.0 0.0 13 ------- null}
h -t 1.964464 -s 2 -d 1 -p ack -e 40 -c 0 -i 27 -a 0 -x {2.0 0.0 -1 ------- null}
r -t 1.965496 -s 2 -d 1 -p ack -e 40 -c 0 -i 27 -a 0 -x {2.0 0.0 13 ------- null}
+ -t 1.965496 -s 1 -d 0 -p ack -e 40 -c 0 -i 27 -a 0 -x {2.0 0.0 13 ------- null}
- -t 1.965496 -s 1 -d 0 -p ack -e 40 -c 0 -i 27 -a 0 -x {2.0 0.0 13 ------- null}
h -t 1.965496 -s 1 -d 0 -p ack -e 40 -c 0 -i 27 -a 0 -x {2.0 0.0 -1 ------- null}
r -t 1.966528 -s 1 -d 0 -p ack -e 40 -c 0 -i 27 -a 0 -x {2.0 0.0 13 ------- null}
+ -t 2.04 -s 0 -d 1 -p tcp -e 1540 -c 0 -i 28 -a 0 -x {0.0 2.0 14 ------- null}
- -t 2.04 -s 0 -d 1 -p tcp -e 1540 -c 0 -i 28 -a 0 -x {0.0 2.0 14 ------- null}
h -t 2.04 -s 0 -d 1 -p tcp -e 1540 -c 0 -i 28 -a 0 -x {0.0 2.0 -1 ------- null}
r -t 2.042232 -s 0 -d 1 -p tcp -e 1540 -c 0 -i 28 -a 0 -x {0.0 2.0 14 ------- null}
+ -t 2.042232 -s 1 -d 2 -p tcp -e 1540 -c 0 -i 28 -a 0 -x {0.0 2.0 14 ------- null}
- -t 2.042232 -s 1 -d 2 -p tcp -e 1540 -c 0 -i 28 -a 0 -x {0.0 2.0 14 ------- null}
h -t 2.042232 -s 1 -d 2 -p tcp -e 1540 -c 0 -i 28 -a 0 -x {0.0 2.0 -1 ------- null}
r -t 2.044464 -s 1 -d 2 -p tcp -e 1540 -c 0 -i 28 -a 0 -x {0.0 2.0 14 ------- null}
+ -t 2.044464 -s 2 -d 1 -p ack -e 40 -c 0 -i 29 -a 0 -x {2.0 0.0 14 ------- null}
- -t 2.044464 -s 2 -d 1 -p ack -e 40 -c 0 -i 29 -a 0 -x {2.0 0.0 14 ------- null}
h -t 2.044464 -s 2 -d 1 -p ack -e 40 -c 0 -i 29 -a 0 -x {2.0 0.0 -1 ------- null}
r -t 2.045496 -s 2 -d 1 -p ack -e 40 -c 0 -i 29 -a 0 -x {2.0 0.0 14 ------- null}
+ -t 2.045496 -s 1 -d 0 -p ack -e 40 -c 0 -i 29 -a 0 -x {2.0 0.0 14 ------- null}
- -t 2.045496 -s 1 -d 0 -p ack -e 40 -c 0 -i 29 -a 0 -x {2.0 0.0 14 ------- null}
h -t 2.045496 -s 1 -d 0 -p ack -e 40 -c 0 -i 29 -a 0 -x {2.0 0.0 -1 ------- null}
r -t 2.046528 -s 1 -d 0 -p ack -e 40 -c 0 -i 29 -a 0 -x {2.0 0.0 14 ------- null}
+ -t 2.12 -s 0 -d 1 -p tcp -e 1540 -c 0 -i 30 -a 0 -x {0.0 2.0 15 ------- null}
- -t 2.12 -s 0 -d 1 -p tcp -e 1540 -c 0 -i 30 -a 0 -x {0.0 2.0 15 ------- null}
h -t 2.12 -s 0 -d 1 -p tcp -e 1540 -c 0 -i 30 -a 0 -x {0.0 2.0 -1 ------- null}
r -t 2.122232 -s 0 -d 1 -p tcp -e 1540 -c 0 -i 30 -a 0 -x {0.0 2.0 15 ------- null}
+ -t 2.122232 -s 1 -d 2 -p tcp -e 1540 -c 0 -i 30 -a 0 -x {0.0 2.0 15 ------- null}
- -t 2.122232 -s 1 -d 2 -p tcp -e 1540 -c 0 -i 30 -a 0 -x {0.0 2.0 15 ------- null}
h -t 2.122232 -s 1 -d 2 -p tcp -e 1540 -c 0 -i 30 -a 0 -x {0.0 2.0 -1 ------- null}
r -t 2.124464 -s 1 -d 2 -p tcp -e 1540 -c 0 -i 30 -a 0 -x {0.0 2.0 15 ------- null}
+ -t 2.124464 -s 2 -d 1 -p ack -e 40 -c 0 -i 31 -a 0 -x {2.0 0.0 15 ------- null}
- -t 2.124464 -s 2 -d 1 -p ack -e 40 -c 0 -i 31 -a 0 -x {2.0 0.0 15 ------- null}
h -t 2.124464 -s 2 -d 1 -p ack -e 40 -c 0 -i 31 -a 0 -x {2.0 0.0 -1 ------- null}
r -t 2.125496 -s 2 -d 1 -p ack -e 40 -c 0 -i 31 -a 0 -x {2.0 0.0 15 ------- null}
+ -t 2.125496 -s 1 -d 0 -p ack -e 40 -c 0 -i 31 -a 0 -x {2.0 0.0 15 ------- null}
- -t 2.125496 -s 1 -d 0 -p ack -e 40 -c 0 -i 31 -a 0 -x {2.0 0.0 15 ------- null}
h -t 2.125496 -s 1 -d 0 -p ack -e 40 -c 0 -i 31 -a 0 -x {2.0 0.0 -1 ------- null}
r -t 2.126528 -s 1 -d 0 -p ack -e 40 -c 0 -i 31 -a 0 -x {2.0 0.0 15 ------- null}
+ -t 2.2 -s 0 -d 1 -p tcp -e 1540 -c 0 -i 32 -a 0 -x {0.0 2.0 16 ------- null}
- -t 2.2 -s 0 -d 1 -p tcp -e 1540 -c 0 -i 32 -a 0 -x {0.0 2.0 16 ------- null}
h -t 2.2 -s 0 -d 1 -p tcp -e 1540 -c 0 -i 32 -a 0 -x {0.0 2.0 -1 ------- null}
r -t 2.202232 -s 0 -d 1 -p tcp -e 1540 -c 0 -i 32 -a 0 -x {0.0 2.0 16 ------- null}
+ -t 2.202232 -s 1 -d 2 -p tcp -e 1540 -c 0 -i 32 -a 0 -x {0.0 2.0 16 ------- null}
- -t 2.202232 -s 1 -d 2 -p tcp -e 1540 -c 0 -i 32 -a 0 -x {0.0 2.0 16 ------- null}
h -t 2.202232 -s 1 -d 2 -p tcp -e 1540 -c 0 -i 32 -a 0 -x {0.0 2.0 -1 ------- null}
r -t 2.204464 -s 1 -d 2 -p tcp -e 1540 -c 0 -i 32 -a 0 -x {0.0 2.0 16 ------- null}
+ -t 2.204464 -s 2 -d 1 -p ack -e 40 -c 0 -i 33 -a 0 -x {2.0 0.0 16 ------- null}
- -t 2.204464 -s 2 -d 1 -p ack -e 40 -c 0 -i 33 -a 0 -x {2.0 0.0 16 ------- null}
h -t 2.204464 -s 2 -d 1 -p ack -e 40 -c 0 -i 33 -a 0 -x {2.0 0.0 -1 ------- null}
r -t 2.205496 -s 2 -d 1 -p ack -e 40 -c 0 -i 33 -a 0 -x {2.0 0.0 16 ------- null}
+ -t 2.205496 -s 1 -d 0 -p ack -e 40 -c 0 -i 33 -a 0 -x {2.0 0.0 16 ------- null}
- -t 2.205496 -s 1 -d 0 -p ack -e 40 -c 0 -i 33 -a 0 -x {2.0 0.0 16 ------- null}
h -t 2.205496 -s 1 -d 0 -p ack -e 40 -c 0 -i 33 -a 0 -x {2.0 0.0 -1 ------- null}
r -t 2.206528 -s 1 -d 0 -p ack -e 40 -c 0 -i 33 -a 0 -x {2.0 0.0 16 ------- null}
+ -t 2.28 -s 0 -d 1 -p tcp -e 1540 -c 0 -i 34 -a 0 -x {0.0 2.0 17 ------- null}
- -t 2.28 -s 0 -d 1 -p tcp -e 1540 -c 0 -i 34 -a 0 -x {0.0 2.0 17 ------- null}
h -t 2.28 -s 0 -d 1 -p tcp -e 1540 -c 0 -i 34 -a 0 -x {0.0 2.0 -1 ------- null}
r -t 2.282232 -s 0 -d 1 -p tcp -e 1540 -c 0 -i 34 -a 0 -x {0.0 2.0 17 ------- null}
+ -t 2.282232 -s 1 -d 2 -p tcp -e 1540 -c 0 -i 34 -a 0 -x {0.0 2.0 17 ------- null}
- -t 2.282232 -s 1 -d 2 -p tcp -e 1540 -c 0 -i 34 -a 0 -x {0.0 2.0 17 ------- null}
h -t 2.282232 -s 1 -d 2 -p tcp -e 1540 -c 0 -i 34 -a 0 -x {0.0 2.0 -1 ------- null}
r -t 2.284464 -s 1 -d 2 -p tcp -e 1540 -c 0 -i 34 -a 0 -x {0.0 2.0 17 ------- null}
+ -t 2.284464 -s 2 -d 1 -p ack -e 40 -c 0 -i 35 -a 0 -x {2.0 0.0 17 ------- null}
- -t 2.284464 -s 2 -d 1 -p ack -e 40 -c 0 -i 35 -a 0 -x {2.0 0.0 17 ------- null}
h -t 2.284464 -s 2 -d 1 -p ack -e 40 -c 0 -i 35 -a 0 -x {2.0 0.0 -1 ------- null}
r -t 2.285496 -s 2 -d 1 -p ack -e 40 -c 0 -i 35 -a 0 -x {2.0 0.0 17 ------- null}
+ -t 2.285496 -s 1 -d 0 -p ack -e 40 -c 0 -i 35 -a 0 -x {2.0 0.0 17 ------- null}
- -t 2.285496 -s 1 -d 0 -p ack -e 40 -c 0 -i 35 -a 0 -x {2.0 0.0 17 ------- null}
h -t 2.285496 -s 1 -d 0 -p ack -e 40 -c 0 -i 35 -a 0 -x {2.0 0.0 -1 ------- null}
r -t 2.286528 -s 1 -d 0 -p ack -e 40 -c 0 -i 35 -a 0 -x {2.0 0.0 17 ------- null}
+ -t 2.36 -s 0 -d 1 -p tcp -e 1540 -c 0 -i 36 -a 0 -x {0.0 2.0 18 ------- null}
- -t 2.36 -s 0 -d 1 -p tcp -e 1540 -c 0 -i 36 -a 0 -x {0.0 2.0 18 ------- null}
h -t 2.36 -s 0 -d 1 -p tcp -e 1540 -c 0 -i 36 -a 0 -x {0.0 2.0 -1 ------- null}
r -t 2.362232 -s 0 -d 1 -p tcp -e 1540 -c 0 -i 36 -a 0 -x {0.0 2.0 18 ------- null}
+ -t 2.362232 -s 1 -d 2 -p tcp -e 1540 -c 0 -i 36 -a 0 -x {0.0 2.0 18 ------- null}
- -t 2.362232 -s 1 -d 2 -p tcp -e 1540 -c 0 -i 36 -a 0 -x {0.0 2.0 18 ------- null}
h -t 2.362232 -s 1 -d 2 -p tcp -e 1540 -c 0 -i 36 -a 0 -x {0.0 2.0 -1 ------- null}
r -t 2.364464 -s 1 -d 2 -p tcp -e 1540 -c 0 -i 36 -a 0 -x {0.0 2.0 18 ------- null}
+ -t 2.364464 -s 2 -d 1 -p ack -e 40 -c 0 -i 37 -a 0 -x {2.0 0.0 18 ------- null}
- -t 2.364464 -s 2 -d 1 -p ack -e 40 -c 0 -i 37 -a 0 -x {2.0 0.0 18 ------- null}
h -t 2.364464 -s 2 -d 1 -p ack -e 40 -c 0 -i 37 -a 0 -x {2.0 0.0 -1 ------- null}
r -t 2.365496 -s 2 -d 1 -p ack -e 40 -c 0 -i 37 -a 0 -x {2.0 0.0 18 ------- null}
+ -t 2.365496 -s 1 -d 0 -p ack -e 40 -c 0 -i 37 -a 0 -x {2.0 0.0 18 ------- null}
- -t 2.365496 -s 1 -d 0 -p ack -e 40 -c 0 -i 37 -a 0 -x {2.0 0.0 18 ------- null}
h -t 2.365496 -s 1 -d 0 -p ack -e 40 -c 0 -i 37 -a 0 -x {2.0 0.0 -1 ------- null}
r -t 2.366528 -s 1 -d 0 -p ack -e 40 -c 0 -i 37 -a 0 -x {2.0 0.0 18 ------- null}
+ -t 2.44 -s 0 -d 1 -p tcp -e 1540 -c 0 -i 38 -a 0 -x {0.0 2.0 19 ------- null}
- -t 2.44 -s 0 -d 1 -p tcp -e 1540 -c 0 -i 38 -a 0 -x {0.0 2.0 19 ------- null}
h -t 2.44 -s 0 -d 1 -p tcp -e 1540 -c 0 -i 38 -a 0 -x {0.0 2.0 -1 ------- null}
r -t 2.442232 -s 0 -d 1 -p tcp -e 1540 -c 0 -i 38 -a 0 -x {0.0 2.0 19 ------- null}
+ -t 2.442232 -s 1 -d 2 -p tcp -e 1540 -c 0 -i 38 -a 0 -x {0.0 2.0 19 ------- null}
- -t 2.442232 -s 1 -d 2 -p tcp -e 1540 -c 0 -i 38 -a 0 -x {0.0 2.0 19 ------- null}
h -t 2.442232 -s 1 -d 2 -p tcp -e 1540 -c 0 -i 38 -a 0 -x {0.0 2.0 -1 ------- null}
r -t 2.444464 -s 1 -d 2 -p tcp -e 1540 -c 0 -i 38 -a 0 -x {0.0 2.0 19 ------- null}
+ -t 2.444464 -s 2 -d 1 -p ack -e 40 -c 0 -i 39 -a 0 -x {2.0 0.0 19 ------- null}
- -t 2.444464 -s 2 -d 1 -p ack -e 40 -c 0 -i 39 -a 0 -x {2.0 0.0 19 ------- null}
h -t 2.444464 -s 2 -d 1 -p ack -e 40 -c 0 -i 39 -a 0 -x {2.0 0.0 -1 ------- null}
r -t 2.445496 -s 2 -d 1 -p ack -e 40 -c 0 -i 39 -a 0 -x {2.0 0.0 19 ------- null}
+ -t 2.445496 -s 1 -d 0 -p ack -e 40 -c 0 -i 39 -a 0 -x {2.0 0.0 19 ------- null}
- -t 2.445496 -s 1 -d 0 -p ack -e 40 -c 0 -i 39 -a 0 -x {2.0 0.0 19 ------- null}
h -t 2.445496 -s 1 -d 0 -p ack -e 40 -c 0 -i 39 -a 0 -x {2.0 0.0 -1 ------- null}
r -t 2.446528 -s 1 -d 0 -p ack -e 40 -c 0 -i 39 -a 0 -x {2.0 0.0 19 ------- null}
+ -t 2.52 -s 0 -d 1 -p tcp -e 1540 -c 0 -i 40 -a 0 -x {0.0 2.0 20 ------- null}
- -t 2.52 -s 0 -d 1 -p tcp -e 1540 -c 0 -i 40 -a 0 -x {0.0 2.0 20 ------- null}
h -t 2.52 -s 0 -d 1 -p tcp -e 1540 -c 0 -i 40 -a 0 -x {0.0 2.0 -1 ------- null}
r -t 2.522232 -s 0 -d 1 -p tcp -e 1540 -c 0 -i 40 -a 0 -x {0.0 2.0 20 ------- null}
+ -t 2.522232 -s 1 -d 2 -p tcp -e 1540 -c 0 -i 40 -a 0 -x {0.0 2.0 20 ------- null}
- -t 2.522232 -s 1 -d 2 -p tcp -e 1540 -c 0 -i 40 -a 0 -x {0.0 2.0 20 ------- null}
h -t 2.522232 -s 1 -d 2 -p tcp -e 1540 -c 0 -i 40 -a 0 -x {0.0 2.0 -1 ------- null}
r -t 2.524464 -s 1 -d 2 -p tcp -e 1540 -c 0 -i 40 -a 0 -x {0.0 2.0 20 ------- null}
+ -t 2.524464 -s 2 -d 1 -p ack -e 40 -c 0 -i 41 -a 0 -x {2.0 0.0 20 ------- null}
- -t 2.524464 -s 2 -d 1 -p ack -e 40 -c 0 -i 41 -a 0 -x {2.0 0.0 20 ------- null}
h -t 2.524464 -s 2 -d 1 -p ack -e 40 -c 0 -i 41 -a 0 -x {2.0 0.0 -1 ------- null}
r -t 2.525496 -s 2 -d 1 -p ack -e 40 -c 0 -i 41 -a 0 -x {2.0 0.0 20 ------- null}
+ -t 2.525496 -s 1 -d 0 -p ack -e 40 -c 0 -i 41 -a 0 -x {2.0 0.0 20 ------- null}
- -t 2.525496 -s 1 -d 0 -p ack -e 40 -c 0 -i 41 -a 0 -x {2.0 0.0 20 ------- null}
h -t 2.525496 -s 1 -d 0 -p ack -e 40 -c 0 -i 41 -a 0 -x {2.0 0.0 -1 ------- null}
r -t 2.526528 -s 1 -d 0 -p ack -e 40 -c 0 -i 41 -a 0 -x {2.0 0.0 20 ------- null}
+ -t 2.6 -s 0 -d 1 -p tcp -e 1540 -c 0 -i 42 -a 0 -x {0.0 2.0 21 ------- null}
- -t 2.6 -s 0 -d 1 -p tcp -e 1540 -c 0 -i 42 -a 0 -x {0.0 2.0 21 ------- null}
h -t 2.6 -s 0 -d 1 -p tcp -e 1540 -c 0 -i 42 -a 0 -x {0.0 2.0 -1 ------- null}
r -t 2.602232 -s 0 -d 1 -p tcp -e 1540 -c 0 -i 42 -a 0 -x {0.0 2.0 21 ------- null}
+ -t 2.602232 -s 1 -d 2 -p tcp -e 1540 -c 0 -i 42 -a 0 -x {0.0 2.0 21 ------- null}
- -t 2.602232 -s 1 -d 2 -p tcp -e 1540 -c 0 -i 42 -a 0 -x {0.0 2.0 21 ------- null}
h -t 2.602232 -s 1 -d 2 -p tcp -e 1540 -c 0 -i 42 -a 0 -x {0.0 2.0 -1 ------- null}
r -t 2.604464 -s 1 -d 2 -p tcp -e 1540 -c 0 -i 42 -a 0 -x {0.0 2.0 21 ------- null}
+ -t 2.604464 -s 2 -d 1 -p ack -e 40 -c 0 -i 43 -a 0 -x {2.0 0.0 21 ------- null}
- -t 2.604464 -s 2 -d 1 -p ack -e 40 -c 0 -i 43 -a 0 -x {2.0 0.0 21 ------- null}
h -t 2.604464 -s 2 -d 1 -p ack -e 40 -c 0 -i 43 -a 0 -x {2.0 0.0 -1 ------- null}
r -t 2.605496 -s 2 -d 1 -p ack -e 40 -c 0 -i 43 -a 0 -x {2.0 0.0 21 ------- null}
+ -t 2.605496 -s 1 -d 0 -p ack -e 40 -c 0 -i 43 -a 0 -x {2.0 0.0 21 ------- null}
- -t 2.605496 -s 1 -d 0 -p ack -e 40 -c 0 -i 43 -a 0 -x {2.0 0.0 21 ------- null}
h -t 2.605496 -s 1 -d 0 -p ack -e 40 -c 0 -i 43 -a 0 -x {2.0 0.0 -1 ------- null}
r -t 2.606528 -s 1 -d 0 -p ack -e 40 -c 0 -i 43 -a 0 -x {2.0 0.0 21 ------- null}
+ -t 2.68 -s 0 -d 1 -p tcp -e 1540 -c 0 -i 44 -a 0 -x {0.0 2.0 22 ------- null}
- -t 2.68 -s 0 -d 1 -p tcp -e 1540 -c 0 -i 44 -a 0 -x {0.0 2.0 22 ------- null}
h -t 2.68 -s 0 -d 1 -p tcp -e 1540 -c 0 -i 44 -a 0 -x {0.0 2.0 -1 ------- null}
r -t 2.682232 -s 0 -d 1 -p tcp -e 1540 -c 0 -i 44 -a 0 -x {0.0 2.0 22 ------- null}
+ -t 2.682232 -s 1 -d 2 -p tcp -e 1540 -c 0 -i 44 -a 0 -x {0.0 2.0 22 ------- null}
- -t 2.682232 -s 1 -d 2 -p tcp -e 1540 -c 0 -i 44 -a 0 -x {0.0 2.0 22 ------- null}
h -t 2.682232 -s 1 -d 2 -p tcp -e 1540 -c 0 -i 44 -a 0 -x {0.0 2.0 -1 ------- null}
r -t 2.684464 -s 1 -d 2 -p tcp -e 1540 -c 0 -i 44 -a 0 -x {0.0 2.0 22 ------- null}
+ -t 2.684464 -s 2 -d 1 -p ack -e 40 -c 0 -i 45 -a 0 -x {2.0 0.0 22 ------- null}
- -t 2.684464 -s 2 -d 1 -p ack -e 40 -c 0 -i 45 -a 0 -x {2.0 0.0 22 ------- null}
h -t 2.684464 -s 2 -d 1 -p ack -e 40 -c 0 -i 45 -a 0 -x {2.0 0.0 -1 ------- null}