+ 1 0 1 tcp 40 ------- 0 0.0 2.0 0 0
- 1 0 1 tcp 40 ------- 0 0.0 2.0 0 0
r 1.001032 0 1 tcp 40 ------- 0 0.0 2.0 0 0
+ 1.001032 1 2 tcp 40 ------- 0 0.0 2.0 0 0
- 1.001032 1 2 tcp 40 ------- 0 0.0 2.0 0 0
r 1.002064 1 2 tcp 40 ------- 0 0.0 2.0 0 0
+ 1.002064 2 1 ack 40 ------- 0 2.0 0.0 0 1
- 1.002064 2 1 ack 40 ------- 0 2.0 0.0 0 1
r 1.003096 2 1 ack 40 ------- 0 2.0 0.0 0 1
+ 1.003096 1 0 ack 40 ------- 0 2.0 0.0 0 1
- 1.003096 1 0 ack 40 ------- 0 2.0 0.0 0 1
r 1.004128 1 0 ack 40 ------- 0 2.0 0.0 0 1
+ 1.004128 0 1 tcp 1540 ------- 0 0.0 2.0 1 2
- 1.004128 0 1 tcp 1540 ------- 0 0.0 2.0 1 2
r 1.00636 0 1 tcp 1540 ------- 0 0.0 2.0 1 2
+ 1.00636 1 2 tcp 1540 ------- 0 0.0 2.0 1 2
- 1.00636 1 2 tcp 1540 ------- 0 0.0 2.0 1 2
r 1.008592 1 2 tcp 1540 ------- 0 0.0 2.0 1 2
+ 1.008592 2 1 ack 40 ------- 0 2.0 0.0 1 3
- 1.008592 2 1 ack 40 ------- 0 2.0 0.0 1 3
r 1.009624 2 1 ack 40 ------- 0 2.0 0.0 1 3
+ 1.009624 1 0 ack 40 ------- 0 2.0 0.0 1 3
- 1.009624 1 0 ack 40 ------- 0 2.0 0.0 1 3
r 1.010656 1 0 ack 40 ------- 0 2.0 0.0 1 3
+ 1.08 0 1 tcp 1540 ------- 0 0.0 2.0 2 4
- 1.08 0 1 tcp 1540 ------- 0 0.0 2.0 2 4
r 1.082232 0 1 tcp 1540 ------- 0 0.0 2.0 2 4
+ 1.082232 1 2 tcp 1540 ------- 0 0.0 2.0 2 4
- 1.082232 1 2 tcp 1540 ------- 0 0.0 2.0 2 4
r 1.084464 1 2 tcp 1540 ------- 0 0.0 2.0 2 4
+ 1.084464 2 1 ack 40 ------- 0 2.0 0.0 2 5
- 1.084464 2 1 ack 40 ------- 0 2.0 0.0 2 5
r 1.085496 2 1 ack 40 ------- 0 2.0 0.0 2 5
+ 1.085496 1 0 ack 40 ------- 0 2.0 0.0 2 5
- 1.085496 1 0 ack 40 ------- 0 2.0 0.0 2 5
r 1.086528 1 0 ack 40 ------- 0 2.0 0.0 2 5
+ 1.16 0 1 tcp 1540 ------- 0 0.0 2.0 3 6
- 1.16 0 1 tcp 1540 ------- 0 0.0 2.0 3 6
r 1.162232 0 1 tcp 1540 ------- 0 0.0 2.0 3 6
+ 1.162232 1 2 tcp 1540 ------- 0 0.0 2.0 3 6
- 1.162232 1 2 tcp 1540 ------- 0 0.0 2.0 3 6
r 1.164464 1 2 tcp 1540 ------- 0 0.0 2.0 3 6
+ 1.164464 2 1 ack 40 ------- 0 2.0 0.0 3 7
- 1.164464 2 1 ack 40 ------- 0 2.0 0.0 3 7
r 1.165496 2 1 ack 40 ------- 0 2.0 0.0 3 7
+ 1.165496 1 0 ack 40 ------- 0 2.0 0.0 3 7
- 1.165496 1 0 ack 40 ------- 0 2.0 0.0 3 7
r 1.166528 1 0 ack 40 ------- 0 2.0 0.0 3 7
+ 1.24 0 1 tcp 1540 ------- 0 0.0 2.0 4 8
- 1.24 0 1 tcp 1540 ------- 0 0.0 2.0 4 8
r 1.242232 0 1 tcp 1540 ------- 0 0.0 2.0 4 8
+ 1.242232 1 2 tcp 1540 ------- 0 0.0 2.0 4 8
- 1.242232 1 2 tcp 1540 ------- 0 0.0 2.0 4 8
r 1.244464 1 2 tcp 1540 ------- 0 0.0 2.0 4 8
+ 1.244464 2 1 ack 40 ------- 0 2.0 0.0 4 9
- 1.244464 2 1 ack 40 ------- 0 2.0 0.0 4 9
r 1.245496 2 1 ack 40 ------- 0 2.0 0.0 4 9
+ 1.245496 1 0 ack 40 ------- 0 2.0 0.0 4 9
- 1.245496 1 0 ack 40 ------- 0 2.0 0.0 4 9
r 1.246528 1 0 ack 40 ------- 0 2.0 0.0 4 9
+ 1.32 0 1 tcp 1540 ------- 0 0.0 2.0 5 10
- 1.32 0 1 tcp 1540 ------- 0 0.0 2.0 5 10
r 1.322232 0 1 tcp 1540 ------- 0 0.0 2.0 5 10
+ 1.322232 1 2 tcp 1540 ------- 0 0.0 2.0 5 10
- 1.322232 1 2 tcp 1540 ------- 0 0.0 2.0 5 10
r 1.324464 1 2 tcp 1540 ------- 0 0.0 2.0 5 10
+ 1.324464 2 1 ack 40 ------- 0 2.0 0.0 5 11
- 1.324464 2 1 ack 40 ------- 0 2.0 0.0 5 11
r 1.325496 2 1 ack 40 ------- 0 2.0 0.0 5 11
+ 1.325496 1 0 ack 40 ------- 0 2.0 0.0 5 11
- 1.325496 1 0 ack 40 ------- 0 2.0 0.0 5 11
r 1.326528 1 0 ack 40 ------- 0 2.0 0.0 5 11
+ 1.4 0 1 tcp 1540 ------- 0 0.0 2.0 6 12
- 1.4 0 1 tcp 1540 ------- 0 0.0 2.0 6 12
r 1.402232 0 1 tcp 1540 ------- 0 0.0 2.0 6 12
+ 1.402232 1 2 tcp 1540 ------- 0 0.0 2.0 6 12
- 1.402232 1 2 tcp 1540 ------- 0 0.0 2.0 6 12
r 1.404464 1 2 tcp 1540 ------- 0 0.0 2.0 6 12
+ 1.404464 2 1 ack 40 ------- 0 2.0 0.0 6 13
- 1.404464 2 1 ack 40 ------- 0 2.0 0.0 6 13
r 1.405496 2 1 ack 40 ------- 0 2.0 0.0 6 13
+ 1.405496 1 0 ack 40 ------- 0 2.0 0.0 6 13
- 1.405496 1 0 ack 40 ------- 0 2.0 0.0 6 13
r 1.406528 1 0 ack 40 ------- 0 2.0 0.0 6 13
+ 1.48 0 1 tcp 1540 ------- 0 0.0 2.0 7 14
- 1.48 0 1 tcp 1540 ------- 0 0.0 2.0 7 14
r 1.482232 0 1 tcp 1540 ------- 0 0.0 2.0 7 14
+ 1.482232 1 2 tcp 1540 ------- 0 0.0 2.0 7 14
- 1.482232 1 2 tcp 1540 ------- 0 0.0 2.0 7 14
r 1.484464 1 2 tcp 1540 ------- 0 0.0 2.0 7 14
+ 1.484464 2 1 ack 40 ------- 0 2.0 0.0 7 15
- 1.484464 2 1 ack 40 ------- 0 2.0 0.0 7 15
r 1.485496 2 1 ack 40 ------- 0 2.0 0.0 7 15
+ 1.485496 1 0 ack 40 ------- 0 2.0 0.0 7 15
- 1.485496 1 0 ack 40 ------- 0 2.0 0.0 7 15
r 1.486528 1 0 ack 40 ------- 0 2.0 0.0 7 15
+ 1.56 0 1 tcp 1540 ------- 0 0.0 2.0 8 16
- 1.56 0 1 tcp 1540 ------- 0 0.0 2.0 8 16
r 1.562232 0 1 tcp 1540 ------- 0 0.0 2.0 8 16
+ 1.562232 1 2 tcp 1540 ------- 0 0.0 2.0 8 16
- 1.562232 1 2 tcp 1540 ------- 0 0.0 2.0 8 16
r 1.564464 1 2 tcp 1540 ------- 0 0.0 2.0 8 16
+ 1.564464 2 1 ack 40 ------- 0 2.0 0.0 8 17
- 1.564464 2 1 ack 40 ------- 0 2.0 0.0 8 17
r 1.565496 2 1 ack 40 ------- 0 2.0 0.0 8 17
+ 1.565496 1 0 ack 40 ------- 0 2.0 0.0 8 17
- 1.565496 1 0 ack 40 ------- 0 2.0 0.0 8 17
r 1.566528 1 0 ack 40 ------- 0 2.0 0.0 8 17
+ 1.64 0 1 tcp 1540 ------- 0 0.0 2.0 9 18
- 1.64 0 1 tcp 1540 ------- 0 0.0 2.0 9 18
r 1.642232 0 1 tcp 1540 ------- 0 0.0 2.0 9 18
+ 1.642232 1 2 tcp 1540 ------- 0 0.0 2.0 9 18
- 1.642232 1 2 tcp 1540 ------- 0 0.0 2.0 9 18
r 1.644464 1 2 tcp 1540 ------- 0 0.0 2.0 9 18
+ 1.644464 2 1 ack 40 ------- 0 2.0 0.0 9 19
- 1.644464 2 1 ack 40 ------- 0 2.0 0.0 9 19
r 1.645496 2 1 ack 40 ------- 0 2.0 0.0 9 19
+ 1.645496 1 0 ack 40 ------- 0 2.0 0.0 9 19
- 1.645496 1 0 ack 40 ------- 0 2.0 0.0 9 19
r 1.646528 1 0 ack 40 ------- 0 2.0 0.0 9 19
+ 1.72 0 1 tcp 1540 ------- 0 0.0 2.0 10 20
- 1.72 0 1 tcp 1540 ------- 0 0.0 2.0 10 20
r 1.722232 0 1 tcp 1540 ------- 0 0.0 2.0 10 20
+ 1.722232 1 2 tcp 1540 ------- 0 0.0 2.0 10 20
- 1.722232 1 2 tcp 1540 ------- 0 0.0 2.0 10 20
r 1.724464 1 2 tcp 1540 ------- 0 0.0 2.0 10 20
+ 1.724464 2 1 ack 40 ------- 0 2.0 0.0 10 21
- 1.724464 2 1 ack 40 ------- 0 2.0 0.0 10 21
r 1.725496 2 1 ack 40 ------- 0 2.0 0.0 10 21
+ 1.725496 1 0 ack 40 ------- 0 2.0 0.0 10 21
- 1.725496 1 0 ack 40 ------- 0 2.0 0.0 10 21
r 1.726528 1 0 ack 40 ------- 0 2.0 0.0 10 21
+ 1.8 0 1 tcp 1540 ------- 0 0.0 2.0 11 22
- 1.8 0 1 tcp 1540 ------- 0 0.0 2.0 11 22
r 1.802232 0 1 tcp 1540 ------- 0 0.0 2.0 11 22
+ 1.802232 1 2 tcp 1540 ------- 0 0.0 2.0 11 22
- 1.802232 1 2 tcp 1540 ------- 0 0.0 2.0 11 22
r 1.804464 1 2 tcp 1540 ------- 0 0.0 2.0 11 22
+ 1.804464 2 1 ack 40 ------- 0 2.0 0.0 11 23
- 1.804464 2 1 ack 40 ------- 0 2.0 0.0 11 23
r 1.805496 2 1 ack 40 ------- 0 2.0 0.0 11 23
+ 1.805496 1 0 ack 40 ------- 0 2.0 0.0 11 23
- 1.805496 1 0 ack 40 ------- 0 2.0 0.0 11 23
r 1.806528 1 0 ack 40 ------- 0 2.0 0.0 11 23
+ 1.88 0 1 tcp 1540 ------- 0 0.0 2.0 12 24
- 1.88 0 1 tcp 1540 ------- 0 0.0 2.0 12 24
r 1.882232 0 1 tcp 1540 ------- 0 0.0 2.0 12 24
+ 1.882232 1 2 tcp 1540 ------- 0 0.0 2.0 12 24
- 1.882232 1 2 tcp 1540 ------- 0 0.0 2.0 12 24
r 1.884464 1 2 tcp 1540 ------- 0 0.0 2.0 12 24
+ 1.884464 2 1 ack 40 ------- 0 2.0 0.0 12 25
- 1.884464 2 1 ack 40 ------- 0 2.0 0.0 12 25
r 1.885496 2 1 ack 40 ------- 0 2.0 0.0 12 25
+ 1.885496 1 0 ack 40 ------- 0 2.0 0.0 12 25
- 1.885496 1 0 ack 40 ------- 0 2.0 0.0 12 25
r 1.886528 1 0 ack 40 ------- 0 2.0 0.0 12 25
+ 1.96 0 1 tcp 1540 ------- 0 0.0 2.0 13 26
- 1.96 0 1 tcp 1540 ------- 0 0.0 2.0 13 26
r 1.962232 0 1 tcp 1540 ------- 0 0.0 2.0 13 26
+ 1.962232 1 2 tcp 1540 ------- 0 0.0 2.0 13 26
- 1.962232 1 2 tcp 1540 ------- 0 0.0 2.0 13 26
r 1.964464 1 2 tcp 1540 ------- 0 0.0 2.0 13 26
+ 1.964464 2 1 ack 40 ------- 0 2.0 0.0 13 27
- 1.964464 2 1 ack 40 ------- 0 2.0 0.0 13 27
r 1.965496 2 1 ack 40 ------- 0 2.0 0.0 13 27
+ 1.965496 1 0 ack 40 ------- 0 2.0 0.0 13 27
- 1.965496 1 0 ack 40 ------- 0 2.0 0.0 13 27
r 1.966528 1 0 ack 40 ------- 0 2.0 0.0 13 27
+ 2.04 0 1 tcp 1540 ------- 0 0.0 2.0 14 28
- 2.04 0 1 tcp 1540 ------- 0 0.0 2.0 14 28
r 2.042232 0 1 tcp 1540 ------- 0 0.0 2.0 14 28
+ 2.042232 1 2 tcp 1540 ------- 0 0.0 2.0 14 28
- 2.042232 1 2 tcp 1540 ------- 0 0.0 2.0 14 28
r 2.044464 1 2 tcp 1540 ------- 0 0.0 2.0 14 28
+ 2.044464 2 1 ack 40 ------- 0 2.0 0.0 14 29
- 2.044464 2 1 ack 40 ------- 0 2.0 0.0 14 29
r 2.045496 2 1 ack 40 ------- 0 2.0 0.0 14 29
+ 2.045496 1 0 ack 40 ------- 0 2.0 0.0 14 29
- 2.045496 1 0 ack 40 ------- 0 2.0 0.0 14 29
r 2.046528 1 0 ack 40 ------- 0 2.0 0.0 14 29
+ 2.12 0 1 tcp 1540 ------- 0 0.0 2.0 15 30
- 2.12 0 1 tcp 1540 ------- 0 0.0 2.0 15 30
r 2.122232 0 1 tcp 1540 ------- 0 0.0 2.0 15 30
+ 2.122232 1 2 tcp 1540 ------- 0 0.0 2.0 15 30
- 2.122232 1 2 tcp 1540 ------- 0 0.0 2.0 15 30
r 2.124464 1 2 tcp 1540 ------- 0 0.0 2.0 15 30
+ 2.124464 2 1 ack 40 ------- 0 2.0 0.0 15 31
- 2.124464 2 1 ack 40 ------- 0 2.0 0.0 15 31
r 2.125496 2 1 ack 40 ------- 0 2.0 0.0 15 31
+ 2.125496 1 0 ack 40 ------- 0 2.0 0.0 15 31
- 2.125496 1 0 ack 40 ------- 0 2.0 0.0 15 31
r 2.126528 1 0 ack 40 ------- 0 2.0 0.0 15 31
+ 2.2 0 1 tcp 1540 ------- 0 0.0 2.0 16 32
- 2.2 0 1 tcp 1540 ------- 0 0.0 2.0 16 32
r 2.202232 0 1 tcp 1540 ------- 0 0.0 2.0 16 32
+ 2.202232 1 2 tcp 1540 ------- 0 0.0 2.0 16 32
- 2.202232 1 2 tcp 1540 ------- 0 0.0 2.0 16 32
r 2.204464 1 2 tcp 1540 ------- 0 0.0 2.0 16 32
+ 2.204464 2 1 ack 40 ------- 0 2.0 0.0 16 33
- 2.204464 2 1 ack 40 ------- 0 2.0 0.0 16 33
r 2.205496 2 1 ack 40 ------- 0 2.0 0.0 16 33
+ 2.205496 1 0 ack 40 ------- 0 2.0 0.0 16 33
- 2.205496 1 0 ack 40 ------- 0 2.0 0.0 16 33
r 2.206528 1 0 ack 40 ------- 0 2.0 0.0 16 33
+ 2.28 0 1 tcp 1540 ------- 0 0.0 2.0 17 34
- 2.28 0 1 tcp 1540 ------- 0 0.0 2.0 17 34
r 2.282232 0 1 tcp 1540 ------- 0 0.0 2.0 17 34
+ 2.282232 1 2 tcp 1540 ------- 0 0.0 2.0 17 34
- 2.282232 1 2 tcp 1540 ------- 0 0.0 2.0 17 34
r 2.284464 1 2 tcp 1540 ------- 0 0.0 2.0 17 34
+ 2.284464 2 1 ack 40 ------- 0 2.0 0.0 17 35
- 2.284464 2 1 ack 40 ------- 0 2.0 0.0 17 35
r 2.285496 2 1 ack 40 ------- 0 2.0 0.0 17 35
+ 2.285496 1 0 ack 40 ------- 0 2.0 0.0 17 35
- 2.285496 1 0 ack 40 ------- 0 2.0 0.0 17 35
r 2.286528 1 0 ack 40 ------- 0 2.0 0.0 17 35
+ 2.36 0 1 tcp 1540 ------- 0 0.0 2.0 18 36
- 2.36 0 1 tcp 1540 ------- 0 0.0 2.0 18 36
r 2.362232 0 1 tcp 1540 ------- 0 0.0 2.0 18 36
+ 2.362232 1 2 tcp 1540 ------- 0 0.0 2.0 18 36
- 2.362232 1 2 tcp 1540 ------- 0 0.0 2.0 18 36
r 2.364464 1 2 tcp 1540 ------- 0 0.0 2.0 18 36
+ 2.364464 2 1 ack 40 ------- 0 2.0 0.0 18 37
- 2.364464 2 1 ack 40 ------- 0 2.0 0.0 18 37
r 2.365496 2 1 ack 40 ------- 0 2.0 0.0 18 37
+ 2.365496 1 0 ack 40 ------- 0 2.0 0.0 18 37
- 2.365496 1 0 ack 40 ------- 0 2.0 0.0 18 37
r 2.366528 1 0 ack 40 ------- 0 2.0 0.0 18 37
+ 2.44 0 1 tcp 1540 ------- 0 0.0 2.0 19 38
- 2.44 0 1 tcp 1540 ------- 0 0.0 2.0 19 38
r 2.442232 0 1 tcp 1540 ------- 0 0.0 2.0 19 38
+ 2.442232 1 2 tcp 1540 ------- 0 0.0 2.0 19 38
- 2.442232 1 2 tcp 1540 ------- 0 0.0 2.0 19 38
r 2.444464 1 2 tcp 1540 ------- 0 0.0 2.0 19 38
+ 2.444464 2 1 ack 40 ------- 0 2.0 0.0 19 39
- 2.444464 2 1 ack 40 ------- 0 2.0 0.0 19 39
r 2.445496 2 1 ack 40 ------- 0 2.0 0.0 19 39
+ 2.445496 1 0 ack 40 ------- 0 2.0 0.0 19 39
- 2.445496 1 0 ack 40 ------- 0 2.0 0.0 19 39
r 2.446528 1 0 ack 40 ------- 0 2.0 0.0 19 39
+ 2.52 0 1 tcp 1540 ------- 0 0.0 2.0 20 40
- 2.52 0 1 tcp 1540 ------- 0 0.0 2.0 20 40
r 2.522232 0 1 tcp 1540 ------- 0 0.0 2.0 20 40
+ 2.522232 1 2 tcp 1540 ------- 0 0.0 2.0 20 40
- 2.522232 1 2 tcp 1540 ------- 0 0.0 2.0 20 40
r 2.524464 1 2 tcp 1540 ------- 0 0.0 2.0 20 40
+ 2.524464 2 1 ack 40 ------- 0 2.0 0.0 20 41
- 2.524464 2 1 ack 40 ------- 0 2.0 0.0 20 41
r 2.525496 2 1 ack 40 ------- 0 2.0 0.0 20 41
+ 2.525496 1 0 ack 40 ------- 0 2.0 0.0 20 41
- 2.525496 1 0 ack 40 ------- 0 2.0 0.0 20 41
r 2.526528 1 0 ack 40 ------- 0 2.0 0.0 20 41
+ 2.6 0 1 tcp 1540 ------- 0 0.0 2.0 21 42
- 2.6 0 1 tcp 1540 ------- 0 0.0 2.0 21 42
r 2.602232 0 1 tcp 1540 ------- 0 0.0 2.0 21 42
+ 2.602232 1 2 tcp 1540 ------- 0 0.0 2.0 21 42
- 2.602232 1 2 tcp 1540 ------- 0 0.0 2.0 21 42
r 2.604464 1 2 tcp 1540 ------- 0 0.0 2.0 21 42
+ 2.604464 2 1 ack 40 ------- 0 2.0 0.0 21 43
- 2.604464 2 1 ack 40 ------- 0 2.0 0.0 21 43
r 2.605496 2 1 ack 40 ------- 0 2.0 0.0 21 43
+ 2.605496 1 0 ack 40 ------- 0 2.0 0.0 21 43
- 2.605496 1 0 ack 40 ------- 0 2.0 0.0 21 43
r 2.606528 1 0 ack 40 ------- 0 2.0 0.0 21 43
+ 2.68 0 1 tcp 1540 ------- 0 0.0 2.0 22 44
- 2.68 0 1 tcp 1540 ------- 0 0.0 2.0 22 44
r 2.682232 0 1 tcp 1540 ------- 0 0.0 2.0 22 44
+ 2.682232 1 2 tcp 1540 ------- 0 0.0 2.0 22 44
- 2.682232 1 2 tcp 1540 ------- 0 0.0 2.0 22 44
r 2.684464 1 2 tcp 1540 ------- 0 0.0 2.0 22 44
+ 2.684464 2 1 ack 40 ------- 0 2.0 0.0 22 45
- 2.684464 2 1 ack 40 ------- 0 2.0 0.0 22 45
r 2.685496 2 1 ack 40 ------- 0 2.0 0.0 22 45
+ 2.685496 1 0 ack 40 ------- 0 2.0 0.0 22 45
- 2.685496 1 0 ack 40 ------- 0 2.0 0.0 22 45
r 2.686528 1 0 ack 40 ------- 0 2.0 0.0 22 45
+ 2.76 0 1 tcp 1540 ------- 0 0.0 2.0 23 46
- 2.76 0 1 tcp 1540 ------- 0 0.0 2.0 23 46
r 2.762232 0 1 tcp 1540 ------- 0 0.0 2.0 23 46
+ 2.762232 1 2 tcp 1540 ------- 0 0.0 2.0 23 46
- 2.762232 1 2 tcp 1540 ------- 0 0.0 2.0 23 46
r 2.764464 1 2 tcp 1540 ------- 0 0.0 2.0 23 46
+ 2.764464 2 1 ack 40 ------- 0 2.0 0.0 23 47
- 2.764464 2 1 ack 40 ------- 0 2.0 0.0 23 47
r 2.765496 2 1 ack 40 ------- 0 2.0 0.0 23 47
+ 2.765496 1 0 ack 40 ------- 0 2.0 0.0 23 47
- 2.765496 1 0 ack 40 ------- 0 2.0 0.0 23 47
r 2.766528 1 0 ack 40 ------- 0 2.0 0.0 23 47
+ 2.84 0 1 tcp 1540 ------- 0 0.0 2.0 24 48
- 2.84 0 1 tcp 1540 ------- 0 0.0 2.0 24 48
r 2.842232 0 1 tcp 1540 ------- 0 0.0 2.0 24 48
+ 2.842232 1 2 tcp 1540 ------- 0 0.0 2.0 24 48
- 2.842232 1 2 tcp 1540 ------- 0 0.0 2.0 24 48
r 2.844464 1 2 tcp 1540 ------- 0 0.0 2.0 24 48
+ 2.844464 2 1 ack 40 ------- 0 2.0 0.0 24 49
- 2.844464 2 1 ack 40 ------- 0 2.0 0.0 24 49
r 2.845496 2 1 ack 40 ------- 0 2.0 0.0 24 49
+ 2.845496 1 0 ack 40 ------- 0 2.0 0.0 24 49
- 2.845496 1 0 ack 40 ------- 0 2.0 0.0 24 49
r 2.846528 1 0 ack 40 ------- 0 2.0 0.0 24 49
+ 2.92 0 1 tcp 1540 ------- 0 0.0 2.0 25 50
- 2.92 0 1 tcp 1540 ------- 0 0.0 2.0 25 50
r 2.922232 0 1 tcp 1540 ------- 0 0.0 2.0 25 50
+ 2.922232 1 2 tcp 1540 ------- 0 0.0 2.0 25 50
- 2.922232 1 2 tcp 1540 ------- 0 0.0 2.0 25 50
r 2.924464 1 2 tcp 1540 ------- 0 0.0 2.0 25 50
+ 2.924464 2 1 ack 40 ------- 0 2.0 0.0 25 51
- 2.924464 2 1 ack 40 ------- 0 2.0 0.0 25 51
r 2.925496 2 1 ack 40 ------- 0 2.0 0.0 25 51
+ 2.925496 1 0 ack 40 ------- 0 2.0 0.0 25 51
- 2.925496 1 0 ack 40 ------- 0 2.0 0.0 25 51
r 2.926528 1 0 ack 40 ------- 0 2.0 0.0 25 51
+ 3 0 1 tcp 1540 ------- 0 0.0 2.0 26 52
- 3 0 1 tcp 1540 ------- 0 0.0 2.0 26 52
r 3.002232 0 1 tcp 1540 ------- 0 0.0 2.0 26 52
+ 3.002232 1 2 tcp 1540 ------- 0 0.0 2.0 26 52
- 3.002232 1 2 tcp 1540 ------- 0 0.0 2.0 26 52
r 3.004464 1 2 tcp 1540 ------- 0 0.0 2.0 26 52
+ 3.004464 2 1 ack 40 ------- 0 2.0 0.0 26 53
- 3.004464 2 1 ack 40 ------- 0 2.0 0.0 26 53
r 3.005496 2 1 ack 40 ------- 0 2.0 0.0 26 53
+ 3.005496 1 0 ack 40 ------- 0 2.0 0.0 26 53
- 3.005496 1 0 ack 40 ------- 0 2.0 0.0 26 53
r 3.006528 1 0 ack 40 ------- 0 2.0 0.0 26 53
+ 3.08 0 1 tcp 1540 ------- 0 0.0 2.0 27 54
- 3.08 0 1 tcp 1540 ------- 0 0.0 2.0 27 54
r 3.082232 0 1 tcp 1540 ------- 0 0.0 2.0 27 54
+ 3.082232 1 2 tcp 1540 ------- 0 0.0 2.0 27 54
- 3.082232 1 2 tcp 1540 ------- 0 0.0 2.0 27 54
r 3.084464 1 2 tcp 1540 ------- 0 0.0 2.0 27 54
+ 3.084464 2 1 ack 40 ------- 0 2.0 0.0 27 55
- 3.084464 2 1 ack 40 ------- 0 2.0 0.0 27 55
r 3.085496 2 1 ack 40 ------- 0 2.0 0.0 27 55
+ 3.085496 1 0 ack 40 ------- 0 2.0 0.0 27 55
- 3.085496 1 0 ack 40 ------- 0 2.0 0.0 27 55
r 3.086528 1 0 ack 40 ------- 0 2.0 0.0 27 55
+ 3.16 0 1 tcp 1540 ------- 0 0.0 2.0 28 56
- 3.16 0 1 tcp 1540 ------- 0 0.0 2.0 28 56
r 3.162232 0 1 tcp 1540 ------- 0 0.0 2.0 28 56
+ 3.162232 1 2 tcp 1540 ------- 0 0.0 2.0 28 56
- 3.162232 1 2 tcp 1540 ------- 0 0.0 2.0 28 56
r 3.164464 1 2 tcp 1540 ------- 0 0.0 2.0 28 56
+ 3.164464 2 1 ack 40 ------- 0 2.0 0.0 28 57
- 3.164464 2 1 ack 40 ------- 0 2.0 0.0 28 57
r 3.165496 2 1 ack 40 ------- 0 2.0 0.0 28 57
+ 3.165496 1 0 ack 40 ------- 0 2.0 0.0 28 57
- 3.165496 1 0 ack 40 ------- 0 2.0 0.0 28 57
r 3.166528 1 0 ack 40 ------- 0 2.0 0.0 28 57
+ 3.24 0 1 tcp 1540 ------- 0 0.0 2.0 29 58
- 3.24 0 1 tcp 1540 ------- 0 0.0 2.0 29 58
r 3.242232 0 1 tcp 1540 ------- 0 0.0 2.0 29 58
+ 3.242232 1 2 tcp 1540 ------- 0 0.0 2.0 29 58
- 3.242232 1 2 tcp 1540 ------- 0 0.0 2.0 29 58
r 3.244464 1 2 tcp 1540 ------- 0 0.0 2.0 29 58
+ 3.244464 2 1 ack 40 ------- 0 2.0 0.0 29 59
- 3.244464 2 1 ack 40 ------- 0 2.0 0.0 29 59
r 3.245496 2 1 ack 40 ------- 0 2.0 0.0 29 59
+ 3.245496 1 0 ack 40 ------- 0 2.0 0.0 29 59
- 3.245496 1 0 ack 40 ------- 0 2.0 0.0 29 59
r 3.246528 1 0 ack 40 ------- 0 2.0 0.0 29 59
+ 3.32 0 1 tcp 1540 ------- 0 0.0 2.0 30 60
- 3.32 0 1 tcp 1540 ------- 0 0.0 2.0 30 60
r 3.322232 0 1 tcp 1540 ------- 0 0.0 2.0 30 60
+ 3.322232 1 2 tcp 1540 ------- 0 0.0 2.0 30 60
- 3.322232 1 2 tcp 1540 ------- 0 0.0 2.0 30 60
r 3.324464 1 2 tcp 1540 ------- 0 0.0 2.0 30 60
+ 3.324464 2 1 ack 40 ------- 0 2.0 0.0 30 61
- 3.324464 2 1 ack 40 ------- 0 2.0 0.0 30 61
r 3.325496 2 1 ack 40 ------- 0 2.0 0.0 30 61
+ 3.325496 1 0 ack 40 ------- 0 2.0 0.0 30 61
- 3.325496 1 0 ack 40 ------- 0 2.0 0.0 30 61
r 3.326528 1 0 ack 40 ------- 0 2.0 0.0 30 61
+ 3.4 0 1 tcp 1540 ------- 0 0.0 2.0 31 62
- 3.4 0 1 tcp 1540 ------- 0 0.0 2.0 31 62
r 3.402232 0 1 tcp 1540 ------- 0 0.0 2.0 31 62
+ 3.402232 1 2 tcp 1540 ------- 0 0.0 2.0 31 62
- 3.402232 1 2 tcp 1540 ------- 0 0.0 2.0 31 62
r 3.404464 1 2 tcp 1540 ------- 0 0.0 2.0 31 62
+ 3.404464 2 1 ack 40 ------- 0 2.0 0.0 31 63
- 3.404464 2 1 ack 40 ------- 0 2.0 0.0 31 63
r 3.405496 2 1 ack 40 ------- 0 2.0 0.0 31 63
+ 3.405496 1 0 ack 40 ------- 0 2.0 0.0 31 63
- 3.405496 1 0 ack 40 ------- 0 2.0 0.0 31 63
r 3.406528 1 0 ack 40 ------- 0 2.0 0.0 31 63
+ 3.48 0 1 tcp 1540 ------- 0 0.0 2.0 32 64
- 3.48 0 1 tcp 1540 ------- 0 0.0 2.0 32 64
r 3.482232 0 1 tcp 1540 ------- 0 0.0 2.0 32 64
+ 3.482232 1 2 tcp 1540 ------- 0 0.0 2.0 32 64
- 3.482232 1 2 tcp 1540 ------- 0 0.0 2.0 32 64
r 3.484464 1 2 tcp 1540 ------- 0 0.0 2.0 32 64
+ 3.484464 2 1 ack 40 ------- 0 2.0 0.0 32 65
- 3.484464 2 1 ack 40 ------- 0 2.0 0.0 32 65
r 3.485496 2 1 ack 40 ------- 0 2.0 0.0 32 65
+ 3.485496 1 0 ack 40 ------- 0 2.0 0.0 32 65
- 3.485496 1 0 ack 40 ------- 0 2.0 0.0 32 65
r 3.486528 1 0 ack 40 ------- 0 2.0 0.0 32 65
+ 3.56 0 1 tcp 1540 ------- 0 0.0 2.0 33 66
- 3.56 0 1 tcp 1540 ------- 0 0.0 2.0 33 66
r 3.562232 0 1 tcp 1540 ------- 0 0.0 2.0 33 66
+ 3.562232 1 2 tcp 1540 ------- 0 0.0 2.0 33 66
- 3.562232 1 2 tcp 1540 ------- 0 0.0 2.0 33 66
r 3.564464 1 2 tcp 1540 ------- 0 0.0 2.0 33 66
+ 3.564464 2 1 ack 40 ------- 0 2.0 0.0 33 67
- 3.564464 2 1 ack 40 ------- 0 2.0 0.0 33 67
r 3.565496 2 1 ack 40 ------- 0 2.0 0.0 33 67
+ 3.565496 1 0 ack 40 ------- 0 2.0 0.0 33 67
- 3.565496 1 0 ack 40 ------- 0 2.0 0.0 33 67
r 3.566528 1 0 ack 40 ------- 0 2.0 0.0 33 67
+ 3.64 0 1 tcp 1540 ------- 0 0.0 2.0 34 68
- 3.64 0 1 tcp 1540 ------- 0 0.0 2.0 34 68
r 3.642232 0 1 tcp 1540 ------- 0 0.0 2.0 34 68
+ 3.642232 1 2 tcp 1540 ------- 0 0.0 2.0 34 68
- 3.642232 1 2 tcp 1540 ------- 0 0.0 2.0 34 68
r 3.644464 1 2 tcp 1540 ------- 0 0.0 2.0 34 68
+ 3.644464 2 1 ack 40 ------- 0 2.0 0.0 34 69
- 3.644464 2 1 ack 40 ------- 0 2.0 0.0 34 69
r 3.645496 2 1 ack 40 ------- 0 2.0 0.0 34 69
+ 3.645496 1 0 ack 40 ------- 0 2.0 0.0 34 69
- 3.645496 1 0 ack 40 ------- 0 2.0 0.0 34 69
r 3.646528 1 0 ack 40 ------- 0 2.0 0.0 34 69
+ 3.72 0 1 tcp 1540 ------- 0 0.0 2.0 35 70
- 3.72 0 1 tcp 1540 ------- 0 0.0 2.0 35 70
r 3.722232 0 1 tcp 1540 ------- 0 0.0 2.0 35 70
+ 3.722232 1 2 tcp 1540 ------- 0 0.0 2.0 35 70
- 3.722232 1 2 tcp 1540 ------- 0 0.0 2.0 35 70
r 3.724464 1 2 tcp 1540 ------- 0 0.0 2.0 35 70
+ 3.724464 2 1 ack 40 ------- 0 2.0 0.0 35 71
- 3.724464 2 1 ack 40 ------- 0 2.0 0.0 35 71
r 3.725496 2 1 ack 40 ------- 0 2.0 0.0 35 71
+ 3.725496 1 0 ack 40 ------- 0 2.0 0.0 35 71
- 3.725496 1 0 ack 40 ------- 0 2.0 0.0 35 71
r 3.726528 1 0 ack 40 ------- 0 2.0 0.0 35 71
+ 3.8 0 1 tcp 1540 ------- 0 0.0 2.0 36 72
- 3.8 0 1 tcp 1540 ------- 0 0.0 2.0 36 72
r 3.802232 0 1 tcp 1540 ------- 0 0.0 2.0 36 72
+ 3.802232 1 2 tcp 1540 ------- 0 0.0 2.0 36 72
- 3.802232 1 2 tcp 1540 ------- 0 0.0 2.0 36 72
r 3.804464 1 2 tcp 1540 ------- 0 0.0 2.0 36 72
+ 3.804464 2 1 ack 40 ------- 0 2.0 0.0 36 73
- 3.804464 2 1 ack 40 ------- 0 2.0 0.0 36 73
r 3.805496 2 1 ack 40 ------- 0 2.0 0.0 36 73
+ 3.805496 1 0 ack 40 ------- 0 2.0 0.0 36 73
- 3.805496 1 0 ack 40 ------- 0 2.0 0.0 36 73
r 3.806528 1 0 ack 40 ------- 0 2.0 0.0 36 73
+ 3.88 0 1 tcp 1540 ------- 0 0.0 2.0 37 74
- 3.88 0 1 tcp 1540 ------- 0 0.0 2.0 37 74
r 3.882232 0 1 tcp 1540 ------- 0 0.0 2.0 37 74
+ 3.882232 1 2 tcp 1540 ------- 0 0.0 2.0 37 74
- 3.882232 1 2 tcp 1540 ------- 0 0.0 2.0 37 74
r 3.884464 1 2 tcp 1540 ------- 0 0.0 2.0 37 74
+ 3.884464 2 1 ack 40 ------- 0 2.0 0.0 37 75
- 3.884464 2 1 ack 40 ------- 0 2.0 0.0 37 75
r 3.885496 2 1 ack 40 ------- 0 2.0 0.0 37 75
+ 3.885496 1 0 ack 40 ------- 0 2.0 0.0 37 75
- 3.885496 1 0 ack 40 ------- 0 2.0 0.0 37 75
r 3.886528 1 0 ack 40 ------- 0 2.0 0.0 37 75
+ 3.96 0 1 tcp 1540 ------- 0 0.0 2.0 38 76
- 3.96 0 1 tcp 1540 ------- 0 0.0 2.0 38 76
r 3.962232 0 1 tcp 1540 ------- 0 0.0 2.0 38 76
+ 3.962232 1 2 tcp 1540 ------- 0 0.0 2.0 38 76
- 3.962232 1 2 tcp 1540 ------- 0 0.0 2.0 38 76
r 3.964464 1 2 tcp 1540 ------- 0 0.0 2.0 38 76
+ 3.964464 2 1 ack 40 ------- 0 2.0 0.0 38 77
- 3.964464 2 1 ack 40 ------- 0 2.0 0.0 38 77
r 3.965496 2 1 ack 40 ------- 0 2.0 0.0 38 77
+ 3.965496 1 0 ack 40 ------- 0 2.0 0.0 38 77
- 3.965496 1 0 ack 40 ------- 0 2.0 0.0 38 77
r 3.966528 1 0 ack 40 ------- 0 2.0 0.0 38 77
+ 4.04 0 1 tcp 1540 ------- 0 0.0 2.0 39 78
- 4.04 0 1 tcp 1540 ------- 0 0.0 2.0 39 78
r 4.042232 0 1 tcp 1540 ------- 0 0.0 2.0 39 78
+ 4.042232 1 2 tcp 1540 ------- 0 0.0 2.0 39 78
- 4.042232 1 2 tcp 1540 ------- 0 0.0 2.0 39 78
r 4.044464 1 2 tcp 1540 ------- 0 0.0 2.0 39 78
+ 4.044464 2 1 ack 40 ------- 0 2.0 0.0 39 79
- 4.044464 2 1 ack 40 ------- 0 2.0 0.0 39 79
r 4.045496 2 1 ack 40 ------- 0 2.0 0.0 39 79
+ 4.045496 1 0 ack 40 ------- 0 2.0 0.0 39 79
- 4.045496 1 0 ack 40 ------- 0 2.0 0.0 39 79
r 4.046528 1 0 ack 40 ------- 0 2.0 0.0 39 79
+ 4.12 0 1 tcp 1540 ------- 0 0.0 2.0 40 80
- 4.12 0 1 tcp 1540 ------- 0 0.0 2.0 40 80
r 4.122232 0 1 tcp 1540 ------- 0 0.0 2.0 40 80
+ 4.122232 1 2 tcp 1540 ------- 0 0.0 2.0 40 80
- 4.122232 1 2 tcp 1540 ------- 0 0.0 2.0 40 80
r 4.124464 1 2 tcp 1540 ------- 0 0.0 2.0 40 80
+ 4.124464 2 1 ack 40 ------- 0 2.0 0.0 40 81
- 4.124464 2 1 ack 40 ------- 0 2.0 0.0 40 81
r 4.125496 2 1 ack 40 ------- 0 2.0 0.0 40 81
+ 4.125496 1 0 ack 40 ------- 0 2.0 0.0 40 81
- 4.125496 1 0 ack 40 ------- 0 2.0 0.0 40 81
r 4.126528 1 0 ack 40 ------- 0 2.0 0.0 40 81
+ 4.2 0 1 tcp 1540 ------- 0 0.0 2.0 41 82
- 4.2 0 1 tcp 1540 ------- 0 0.0 2.0 41 82
r 4.202232 0 1 tcp 1540 ------- 0 0.0 2.0 41 82
+ 4.202232 1 2 tcp 1540 ------- 0 0.0 2.0 41 82
- 4.202232 1 2 tcp 1540 ------- 0 0.0 2.0 41 82
r 4.204464 1 2 tcp 1540 ------- 0 0.0 2.0 41 82
+ 4.204464 2 1 ack 40 ------- 0 2.0 0.0 41 83
- 4.204464 2 1 ack 40 ------- 0 2.0 0.0 41 83
r 4.205496 2 1 ack 40 ------- 0 2.0 0.0 41 83
+ 4.205496 1 0 ack 40 ------- 0 2.0 0.0 41 83
- 4.205496 1 0 ack 40 ------- 0 2.0 0.0 41 83
r 4.206528 1 0 ack 40 ------- 0 2.0 0.0 41 83
+ 4.28 0 1 tcp 1540 ------- 0 0.0 2.0 42 84
- 4.28 0 1 tcp 1540 ------- 0 0.0 2.0 42 84
r 4.282232 0 1 tcp 1540 ------- 0 0.0 2.0 42 84
+ 4.282232 1 2 tcp 1540 ------- 0 0.0 2.0 42 84
- 4.282232 1 2 tcp 1540 ------- 0 0.0 2.0 42 84
r 4.284464 1 2 tcp 1540 ------- 0 0.0 2.0 42 84
+ 4.284464 2 1 ack 40 ------- 0 2.0 0.0 42 85
- 4.284464 2 1 ack 40 ------- 0 2.0 0.0 42 85
r 4.285496 2 1 ack 40 ------- 0 2.0 0.0 42 85
+ 4.285496 1 0 ack 40 ------- 0 2.0 0.0 42 85
- 4.285496 1 0 ack 40 ------- 0 2.0 0.0 42 85
r 4.286528 1 0 ack 40 ------- 0 2.0 0.0 42 85
+ 4.36 0 1 tcp 1540 ------- 0 0.0 2.0 43 86
- 4.36 0 1 tcp 1540 ------- 0 0.0 2.0 43 86
r 4.362232 0 1 tcp 1540 ------- 0 0.0 2.0 43 86
+ 4.362232 1 2 tcp 1540 ------- 0 0.0 2.0 43 86
- 4.362232 1 2 tcp 1540 ------- 0 0.0 2.0 43 86
r 4.364464 1 2 tcp 1540 ------- 0 0.0 2.0 43 86
+ 4.364464 2 1 ack 40 ------- 0 2.0 0.0 43 87
- 4.364464 2 1 ack 40 ------- 0 2.0 0.0 43 87
r 4.365496 2 1 ack 40 ------- 0 2.0 0.0 43 87
+ 4.365496 1 0 ack 40 ------- 0 2.0 0.0 43 87
- 4.365496 1 0 ack 40 ------- 0 2.0 0.0 43 87
r 4.366528 1 0 ack 40 ------- 0 2.0 0.0 43 87
+ 4.44 0 1 tcp 1540 ------- 0 0.0 2.0 44 88
- 4.44 0 1 tcp 1540 ------- 0 0.0 2.0 44 88
r 4.442232 0 1 tcp 1540 ------- 0 0.0 2.0 44 88
+ 4.442232 1 2 tcp 1540 ------- 0 0.0 2.0 44 88
- 4.442232 1 2 tcp 1540 ------- 0 0.0 2.0 44 88
r 4.444464 1 2 tcp 1540 ------- 0 0.0 2.0 44 88
+ 4.444464 2 1 ack 40 ------- 0 2.0 0.0 44 89
- 4.444464 2 1 ack 40 ------- 0 2.0 0.0 44 89
r 4.445496 2 1 ack 40 ------- 0 2.0 0.0 44 89
+ 4.445496 1 0 ack 40 ------- 0 2.0 0.0 44 89
- 4.445496 1 0 ack 40 ------- 0 2.0 0.0 44 89
r 4.446528 1 0 ack 40 ------- 0 2.0 0.0 44 89
+ 4.52 0 1 tcp 1540 ------- 0 0.0 2.0 45 90
- 4.52 0 1 tcp 1540 ------- 0 0.0 2.0 45 90
r 4.522232 0 1 tcp 1540 ------- 0 0.0 2.0 45 90
+ 4.522232 1 2 tcp 1540 ------- 0 0.0 2.0 45 90
- 4.522232 1 2 tcp 1540 ------- 0 0.0 2.0 45 90
r 4.524464 1 2 tcp 1540 ------- 0 0.0 2.0 45 90
+ 4.524464 2 1 ack 40 ------- 0 2.0 0.0 45 91
- 4.524464 2 1 ack 40 ------- 0 2.0 0.0 45 91
r 4.525496 2 1 ack 40 ------- 0 2.0 0.0 45 91
+ 4.525496 1 0 ack 40 ------- 0 2.0 0.0 45 91
- 4.525496 1 0 ack 40 ------- 0 2.0 0.0 45 91
r 4.526528 1 0 ack 40 ------- 0 2.0 0.0 45 91
+ 4.6 0 1 tcp 1540 ------- 0 0.0 2.0 46 92
- 4.6 0 1 tcp 1540 ------- 0 0.0 2.0 46 92
r 4.602232 0 1 tcp 1540 ------- 0 0.0 2.0 46 92
+ 4.602232 1 2 tcp 1540 ------- 0 0.0 2.0 46 92
- 4.602232 1 2 tcp 1540 ------- 0 0.0 2.0 46 92
r 4.604464 1 2 tcp 1540 ------- 0 0.0 2.0 46 92
+ 4.604464 2 1 ack 40 ------- 0 2.0 0.0 46 93
- 4.604464 2 1 ack 40 ------- 0 2.0 0.0 46 93
r 4.605496 2 1 ack 40 ------- 0 2.0 0.0 46 93
+ 4.605496 1 0 ack 40 ------- 0 2.0 0.0 46 93
- 4.605496 1 0 ack 40 ------- 0 2.0 0.0 46 93
r 4.606528 1 0 ack 40 ------- 0 2.0 0.0 46 93
+ 4.68 0 1 tcp 1540 ------- 0 0.0 2.0 47 94
- 4.68 0 1 tcp 1540 ------- 0 0.0 2.0 47 94
r 4.682232 0 1 tcp 1540 ------- 0 0.0 2.0 47 94
+ 4.682232 1 2 tcp 1540 ------- 0 0.0 2.0 47 94
- 4.682232 1 2 tcp 1540 ------- 0 0.0 2.0 47 94
r 4.684464 1 2 tcp 1540 ------- 0 0.0 2.0 47 94
+ 4.684464 2 1 ack 40 ------- 0 2.0 0.0 47 95
- 4.684464 2 1 ack 40 ------- 0 2.0 0.0 47 95
r 4.685496 2 1 ack 40 ------- 0 2.0 0.0 47 95
+ 4.685496 1 0 ack 40 ------- 0 2.0 0.0 47 95
- 4.685496 1 0 ack 40 ------- 0 2.0 0.0 47 95
r 4.686528 1 0 ack 40 ------- 0 2.0 0.0 47 95
+ 4.76 0 1 tcp 1540 ------- 0 0.0 2.0 48 96
- 4.76 0 1 tcp 1540 ------- 0 0.0 2.0 48 96
r 4.762232 0 1 tcp 1540 ------- 0 0.0 2.0 48 96
+ 4.762232 1 2 tcp 1540 ------- 0 0.0 2.0 48 96
- 4.762232 1 2 tcp 1540 ------- 0 0.0 2.0 48 96
r 4.764464 1 2 tcp 1540 ------- 0 0.0 2.0 48 96
+ 4.764464 2 1 ack 40 ------- 0 2.0 0.0 48 97
- 4.764464 2 1 ack 40 ------- 0 2.0 0.0 48 97
r 4.765496 2 1 ack 40 ------- 0 2.0 0.0 48 97
+ 4.765496 1 0 ack 40 ------- 0 2.0 0.0 48 97
- 4.765496 1 0 ack 40 ------- 0 2.0 0.0 48 97
r 4.766528 1 0 ack 40 ------- 0 2.0 0.0 48 97
+ 4.84 0 1 tcp 1540 ------- 0 0.0 2.0 49 98
- 4.84 0 1 tcp 1540 ------- 0 0.0 2.0 49 98
r 4.842232 0 1 tcp 1540 ------- 0 0.0 2.0 49 98
+ 4.842232 1 2 tcp 1540 ------- 0 0.0 2.0 49 98
- 4.842232 1 2 tcp 1540 ------- 0 0.0 2.0 49 98
r 4.844464 1 2 tcp 1540 ------- 0 0.0 2.0 49 98
+ 4.844464 2 1 ack 40 ------- 0 2.0 0.0 49 99
- 4.844464 2 1 ack 40 ------- 0 2.0 0.0 49 99
r 4.845496 2 1 ack 40 ------- 0 2.0 0.0 49 99
+ 4.845496 1 0 ack 40 ------- 0 2.0 0.0 49 99
- 4.845496 1 0 ack 40 ------- 0 2.0 0.0 49 99
r 4.846528 1 0 ack 40 ------- 0 2.0 0.0 49 99
+ 4.92 0 1 tcp 1540 ------- 0 0.0 2.0 50 100
- 4.92 0 1 tcp 1540 ------- 0 0.0 2.0 50 100
r 4.922232 0 1 tcp 1540 ------- 0 0.0 2.0 50 100
+ 4.922232 1 2 tcp 1540 ------- 0 0.0 2.0 50 100
- 4.922232 1 2 tcp 1540 ------- 0 0.0 2.0 50 100
r 4.924464 1 2 tcp 1540 ------- 0 0.0 2.0 50 100
+ 4.924464 2 1 ack 40 ------- 0 2.0 0.0 50 101
- 4.924464 2 1 ack 40 ------- 0 2.0 0.0 50 101
r 4.925496 2 1 ack 40 ------- 0 2.0 0.0 50 101
+ 4.925496 1 0 ack 40 ------- 0 2.0 0.0 50 101
- 4.925496 1 0 ack 40 ------- 0 2.0 0.0 50 101
r 4.926528 1 0 ack 40 ------- 0 2.0 0.0 50 101
+ 5 0 1 tcp 1540 ------- 0 0.0 2.0 51 102
- 5 0 1 tcp 1540 ------- 0 0.0 2.0 51 102
r 5.002232 0 1 tcp 1540 ------- 0 0.0 2.0 51 102
+ 5.002232 1 2 tcp 1540 ------- 0 0.0 2.0 51 102
- 5.002232 1 2 tcp 1540 ------- 0 0.0 2.0 51 102
r 5.004464 1 2 tcp 1540 ------- 0 0.0 2.0 51 102
+ 5.004464 2 1 ack 40 ------- 0 2.0 0.0 51 103
- 5.004464 2 1 ack 40 ------- 0 2.0 0.0 51 103
r 5.005496 2 1 ack 40 ------- 0 2.0 0.0 51 103
+ 5.005496 1 0 ack 40 ------- 0 2.0 0.0 51 103
- 5.005496 1 0 ack 40 ------- 0 2.0 0.0 51 103
r 5.006528 1 0 ack 40 ------- 0 2.0 0.0 51 103
+ 5.08 0 1 tcp 1540 ------- 0 0.0 2.0 52 104
- 5.08 0 1 tcp 1540 ------- 0 0.0 2.0 52 104
r 5.082232 0 1 tcp 1540 ------- 0 0.0 2.0 52 104
+ 5.082232 1 2 tcp 1540 ------- 0 0.0 2.0 52 104
- 5.082232 1 2 tcp 1540 ------- 0 0.0 2.0 52 104
r 5.084464 1 2 tcp 1540 ------- 0 0.0 2.0 52 104
+ 5.084464 2 1 ack 40 ------- 0 2.0 0.0 52 105
- 5.084464 2 1 ack 40 ------- 0 2.0 0.0 52 105
r 5.085496 2 1 ack 40 ------- 0 2.0 0.0 52 105
+ 5.085496 1 0 ack 40 ------- 0 2.0 0.0 52 105
- 5.085496 1 0 ack 40 ------- 0 2.0 0.0 52 105
r 5.086528 1 0 ack 40 ------- 0 2.0 0.0 52 105
+ 5.16 0 1 tcp 1540 ------- 0 0.0 2.0 53 106
- 5.16 0 1 tcp 1540 ------- 0 0.0 2.0 53 106
r 5.162232 0 1 tcp 1540 ------- 0 0.0 2.0 53 106
+ 5.162232 1 2 tcp 1540 ------- 0 0.0 2.0 53 106
- 5.162232 1 2 tcp 1540 ------- 0 0.0 2.0 53 106
r 5.164464 1 2 tcp 1540 ------- 0 0.0 2.0 53 106
+ 5.164464 2 1 ack 40 ------- 0 2.0 0.0 53 107
- 5.164464 2 1 ack 40 ------- 0 2.0 0.0 53 107
r 5.165496 2 1 ack 40 ------- 0 2.0 0.0 53 107
+ 5.165496 1 0 ack 40 ------- 0 2.0 0.0 53 107
- 5.165496 1 0 ack 40 ------- 0 2.0 0.0 53 107
r 5.166528 1 0 ack 40 ------- 0 2.0 0.0 53 107
+ 5.24 0 1 tcp 1540 ------- 0 0.0 2.0 54 108
- 5.24 0 1 tcp 1540 ------- 0 0.0 2.0 54 108
r 5.242232 0 1 tcp 1540 ------- 0 0.0 2.0 54 108