+ 0.1 0 1 ping 64 ------- 1 0.0 5.0 -1 0
- 0.1 0 1 ping 64 ------- 1 0.0 5.0 -1 0
r 0.100101 0 1 ping 64 ------- 1 0.0 5.0 -1 0
+ 0.100101 1 2 ping 64 ------- 1 0.0 5.0 -1 0
- 0.100101 1 2 ping 64 ------- 1 0.0 5.0 -1 0
+ 0.2 0 1 ping 64 ------- 1 0.0 5.0 -1 1
- 0.2 0 1 ping 64 ------- 1 0.0 5.0 -1 1
+ 0.2 0 1 ping 64 ------- 1 0.0 5.0 -1 2
+ 0.2 0 1 ping 64 ------- 1 0.0 5.0 -1 3
+ 0.2 1 2 ping 64 ------- 3 1.0 4.0 -1 4
- 0.2 1 2 ping 64 ------- 3 1.0 4.0 -1 4
+ 0.2 1 2 ping 64 ------- 3 1.0 4.0 -1 5
+ 0.2 1 2 ping 64 ------- 3 1.0 4.0 -1 6
d 0.2 1 2 ping 64 ------- 3 1.0 4.0 -1 6
+ 0.2 1 2 ping 64 ------- 3 1.0 4.0 -1 7
d 0.2 1 2 ping 64 ------- 3 1.0 4.0 -1 7
- 0.200051 0 1 ping 64 ------- 1 0.0 5.0 -1 2
r 0.200101 0 1 ping 64 ------- 1 0.0 5.0 -1 1
+ 0.200101 1 2 ping 64 ------- 1 0.0 5.0 -1 1
d 0.200101 1 2 ping 64 ------- 1 0.0 5.0 -1 1
- 0.200102 0 1 ping 64 ------- 1 0.0 5.0 -1 3
r 0.200152 0 1 ping 64 ------- 1 0.0 5.0 -1 2
+ 0.200152 1 2 ping 64 ------- 1 0.0 5.0 -1 2
d 0.200152 1 2 ping 64 ------- 1 0.0 5.0 -1 2
r 0.200204 0 1 ping 64 ------- 1 0.0 5.0 -1 3
+ 0.200204 1 2 ping 64 ------- 1 0.0 5.0 -1 3
d 0.200204 1 2 ping 64 ------- 1 0.0 5.0 -1 3
- 0.21024 1 2 ping 64 ------- 3 1.0 4.0 -1 5
r 0.210341 1 2 ping 64 ------- 1 0.0 5.0 -1 0
+ 0.210341 2 3 ping 64 ------- 1 0.0 5.0 -1 0
- 0.210341 2 3 ping 64 ------- 1 0.0 5.0 -1 0
r 0.211392 2 3 ping 64 ------- 1 0.0 5.0 -1 0
+ 0.211392 3 4 ping 64 ------- 1 0.0 5.0 -1 0
- 0.211392 3 4 ping 64 ------- 1 0.0 5.0 -1 0
r 0.212444 3 4 ping 64 ------- 1 0.0 5.0 -1 0
+ 0.212444 4 5 ping 64 ------- 1 0.0 5.0 -1 0
- 0.212444 4 5 ping 64 ------- 1 0.0 5.0 -1 0
r 0.213495 4 5 ping 64 ------- 1 0.0 5.0 -1 0
+ 0.213495 5 4 ping 64 ------- 2 5.0 0.0 -1 8
- 0.213495 5 4 ping 64 ------- 2 5.0 0.0 -1 8
r 0.214546 5 4 ping 64 ------- 2 5.0 0.0 -1 8
+ 0.214546 4 3 ping 64 ------- 2 5.0 0.0 -1 8
- 0.214546 4 3 ping 64 ------- 2 5.0 0.0 -1 8
r 0.215597 4 3 ping 64 ------- 2 5.0 0.0 -1 8
+ 0.215597 3 2 ping 64 ------- 2 5.0 0.0 -1 8
- 0.215597 3 2 ping 64 ------- 2 5.0 0.0 -1 8
r 0.216648 3 2 ping 64 ------- 2 5.0 0.0 -1 8
+ 0.216648 2 1 ping 64 ------- 2 5.0 0.0 -1 8
- 0.216648 2 1 ping 64 ------- 2 5.0 0.0 -1 8
r 0.31024 1 2 ping 64 ------- 3 1.0 4.0 -1 4
+ 0.31024 2 3 ping 64 ------- 3 1.0 4.0 -1 4
- 0.31024 2 3 ping 64 ------- 3 1.0 4.0 -1 4
r 0.311291 2 3 ping 64 ------- 3 1.0 4.0 -1 4
+ 0.311291 3 4 ping 64 ------- 3 1.0 4.0 -1 4
- 0.311291 3 4 ping 64 ------- 3 1.0 4.0 -1 4
r 0.312342 3 4 ping 64 ------- 3 1.0 4.0 -1 4
+ 0.312342 4 3 ping 64 ------- 4 4.0 1.0 -1 9
- 0.312342 4 3 ping 64 ------- 4 4.0 1.0 -1 9
r 0.313394 4 3 ping 64 ------- 4 4.0 1.0 -1 9
+ 0.313394 3 2 ping 64 ------- 4 4.0 1.0 -1 9
- 0.313394 3 2 ping 64 ------- 4 4.0 1.0 -1 9
r 0.314445 3 2 ping 64 ------- 4 4.0 1.0 -1 9
+ 0.314445 2 1 ping 64 ------- 4 4.0 1.0 -1 9
- 0.314445 2 1 ping 64 ------- 4 4.0 1.0 -1 9
r 0.32048 1 2 ping 64 ------- 3 1.0 4.0 -1 5
+ 0.32048 2 3 ping 64 ------- 3 1.0 4.0 -1 5
- 0.32048 2 3 ping 64 ------- 3 1.0 4.0 -1 5
r 0.321531 2 3 ping 64 ------- 3 1.0 4.0 -1 5
+ 0.321531 3 4 ping 64 ------- 3 1.0 4.0 -1 5
- 0.321531 3 4 ping 64 ------- 3 1.0 4.0 -1 5
r 0.322582 3 4 ping 64 ------- 3 1.0 4.0 -1 5
+ 0.322582 4 3 ping 64 ------- 4 4.0 1.0 -1 10
- 0.322582 4 3 ping 64 ------- 4 4.0 1.0 -1 10
r 0.323634 4 3 ping 64 ------- 4 4.0 1.0 -1 10
+ 0.323634 3 2 ping 64 ------- 4 4.0 1.0 -1 10
- 0.323634 3 2 ping 64 ------- 4 4.0 1.0 -1 10
r 0.324685 3 2 ping 64 ------- 4 4.0 1.0 -1 10
+ 0.324685 2 1 ping 64 ------- 4 4.0 1.0 -1 10
- 0.324685 2 1 ping 64 ------- 4 4.0 1.0 -1 10
r 0.326888 2 1 ping 64 ------- 2 5.0 0.0 -1 8
+ 0.326888 1 0 ping 64 ------- 2 5.0 0.0 -1 8
- 0.326888 1 0 ping 64 ------- 2 5.0 0.0 -1 8
r 0.32699 1 0 ping 64 ------- 2 5.0 0.0 -1 8
+ 0.4 5 4 ping 64 ------- 2 5.0 0.0 -1 11
- 0.4 5 4 ping 64 ------- 2 5.0 0.0 -1 11
+ 0.4 5 4 ping 64 ------- 2 5.0 0.0 -1 12
+ 0.4 5 4 ping 64 ------- 2 5.0 0.0 -1 13
+ 0.4 5 4 ping 64 ------- 2 5.0 0.0 -1 14
+ 0.4 4 3 ping 64 ------- 4 4.0 1.0 -1 15
- 0.4 4 3 ping 64 ------- 4 4.0 1.0 -1 15
+ 0.4 4 3 ping 64 ------- 4 4.0 1.0 -1 16
+ 0.4 4 3 ping 64 ------- 4 4.0 1.0 -1 17
+ 0.4 4 3 ping 64 ------- 4 4.0 1.0 -1 18
- 0.400051 5 4 ping 64 ------- 2 5.0 0.0 -1 12
- 0.400051 4 3 ping 64 ------- 4 4.0 1.0 -1 16
- 0.400102 5 4 ping 64 ------- 2 5.0 0.0 -1 13
- 0.400102 4 3 ping 64 ------- 4 4.0 1.0 -1 17
- 0.400154 5 4 ping 64 ------- 2 5.0 0.0 -1 14
- 0.400154 4 3 ping 64 ------- 4 4.0 1.0 -1 18
r 0.401051 5 4 ping 64 ------- 2 5.0 0.0 -1 11
+ 0.401051 4 3 ping 64 ------- 2 5.0 0.0 -1 11
- 0.401051 4 3 ping 64 ------- 2 5.0 0.0 -1 11
r 0.401051 4 3 ping 64 ------- 4 4.0 1.0 -1 15
+ 0.401051 3 2 ping 64 ------- 4 4.0 1.0 -1 15
- 0.401051 3 2 ping 64 ------- 4 4.0 1.0 -1 15
r 0.401102 5 4 ping 64 ------- 2 5.0 0.0 -1 12
+ 0.401102 4 3 ping 64 ------- 2 5.0 0.0 -1 12
r 0.401102 4 3 ping 64 ------- 4 4.0 1.0 -1 16
+ 0.401102 3 2 ping 64 ------- 4 4.0 1.0 -1 16
- 0.401102 4 3 ping 64 ------- 2 5.0 0.0 -1 12
- 0.401102 3 2 ping 64 ------- 4 4.0 1.0 -1 16
r 0.401154 5 4 ping 64 ------- 2 5.0 0.0 -1 13
+ 0.401154 4 3 ping 64 ------- 2 5.0 0.0 -1 13
r 0.401154 4 3 ping 64 ------- 4 4.0 1.0 -1 17
+ 0.401154 3 2 ping 64 ------- 4 4.0 1.0 -1 17
- 0.401154 4 3 ping 64 ------- 2 5.0 0.0 -1 13
- 0.401154 3 2 ping 64 ------- 4 4.0 1.0 -1 17
r 0.401205 5 4 ping 64 ------- 2 5.0 0.0 -1 14
+ 0.401205 4 3 ping 64 ------- 2 5.0 0.0 -1 14
r 0.401205 4 3 ping 64 ------- 4 4.0 1.0 -1 18
+ 0.401205 3 2 ping 64 ------- 4 4.0 1.0 -1 18
- 0.401205 4 3 ping 64 ------- 2 5.0 0.0 -1 14
- 0.401205 3 2 ping 64 ------- 4 4.0 1.0 -1 18
r 0.402102 4 3 ping 64 ------- 2 5.0 0.0 -1 11
+ 0.402102 3 2 ping 64 ------- 2 5.0 0.0 -1 11
- 0.402102 3 2 ping 64 ------- 2 5.0 0.0 -1 11
r 0.402102 3 2 ping 64 ------- 4 4.0 1.0 -1 15
+ 0.402102 2 1 ping 64 ------- 4 4.0 1.0 -1 15
- 0.402102 2 1 ping 64 ------- 4 4.0 1.0 -1 15
r 0.402154 4 3 ping 64 ------- 2 5.0 0.0 -1 12
+ 0.402154 3 2 ping 64 ------- 2 5.0 0.0 -1 12
r 0.402154 3 2 ping 64 ------- 4 4.0 1.0 -1 16
+ 0.402154 2 1 ping 64 ------- 4 4.0 1.0 -1 16
- 0.402154 3 2 ping 64 ------- 2 5.0 0.0 -1 12
r 0.402205 4 3 ping 64 ------- 2 5.0 0.0 -1 13
+ 0.402205 3 2 ping 64 ------- 2 5.0 0.0 -1 13
r 0.402205 3 2 ping 64 ------- 4 4.0 1.0 -1 17
+ 0.402205 2 1 ping 64 ------- 4 4.0 1.0 -1 17
- 0.402205 3 2 ping 64 ------- 2 5.0 0.0 -1 13
r 0.402256 4 3 ping 64 ------- 2 5.0 0.0 -1 14
+ 0.402256 3 2 ping 64 ------- 2 5.0 0.0 -1 14
r 0.402256 3 2 ping 64 ------- 4 4.0 1.0 -1 18
+ 0.402256 2 1 ping 64 ------- 4 4.0 1.0 -1 18
- 0.402256 3 2 ping 64 ------- 2 5.0 0.0 -1 14
r 0.403154 3 2 ping 64 ------- 2 5.0 0.0 -1 11
+ 0.403154 2 1 ping 64 ------- 2 5.0 0.0 -1 11
r 0.403205 3 2 ping 64 ------- 2 5.0 0.0 -1 12
+ 0.403205 2 1 ping 64 ------- 2 5.0 0.0 -1 12
r 0.403256 3 2 ping 64 ------- 2 5.0 0.0 -1 13
+ 0.403256 2 1 ping 64 ------- 2 5.0 0.0 -1 13
r 0.403307 3 2 ping 64 ------- 2 5.0 0.0 -1 14
+ 0.403307 2 1 ping 64 ------- 2 5.0 0.0 -1 14
- 0.412342 2 1 ping 64 ------- 4 4.0 1.0 -1 16
- 0.422582 2 1 ping 64 ------- 4 4.0 1.0 -1 17
r 0.424685 2 1 ping 64 ------- 4 4.0 1.0 -1 9
- 0.432822 2 1 ping 64 ------- 4 4.0 1.0 -1 18
r 0.434925 2 1 ping 64 ------- 4 4.0 1.0 -1 10
- 0.443062 2 1 ping 64 ------- 2 5.0 0.0 -1 11
- 0.453302 2 1 ping 64 ------- 2 5.0 0.0 -1 12
- 0.463542 2 1 ping 64 ------- 2 5.0 0.0 -1 13
- 0.473782 2 1 ping 64 ------- 2 5.0 0.0 -1 14
r 0.512342 2 1 ping 64 ------- 4 4.0 1.0 -1 15
+ 0.512342 1 2 ping 64 ------- 3 1.0 4.0 -1 19
- 0.512342 1 2 ping 64 ------- 3 1.0 4.0 -1 19
r 0.522582 2 1 ping 64 ------- 4 4.0 1.0 -1 16
+ 0.522582 1 2 ping 64 ------- 3 1.0 4.0 -1 20
- 0.522582 1 2 ping 64 ------- 3 1.0 4.0 -1 20
r 0.532822 2 1 ping 64 ------- 4 4.0 1.0 -1 17
+ 0.532822 1 2 ping 64 ------- 3 1.0 4.0 -1 21
- 0.532822 1 2 ping 64 ------- 3 1.0 4.0 -1 21
r 0.543062 2 1 ping 64 ------- 4 4.0 1.0 -1 18
+ 0.543062 1 2 ping 64 ------- 3 1.0 4.0 -1 22
- 0.543062 1 2 ping 64 ------- 3 1.0 4.0 -1 22
r 0.553302 2 1 ping 64 ------- 2 5.0 0.0 -1 11
+ 0.553302 1 0 ping 64 ------- 2 5.0 0.0 -1 11
- 0.553302 1 0 ping 64 ------- 2 5.0 0.0 -1 11
r 0.553404 1 0 ping 64 ------- 2 5.0 0.0 -1 11
+ 0.553404 0 1 ping 64 ------- 1 0.0 5.0 -1 23
- 0.553404 0 1 ping 64 ------- 1 0.0 5.0 -1 23
r 0.553505 0 1 ping 64 ------- 1 0.0 5.0 -1 23
+ 0.553505 1 2 ping 64 ------- 1 0.0 5.0 -1 23
- 0.553505 1 2 ping 64 ------- 1 0.0 5.0 -1 23
r 0.563542 2 1 ping 64 ------- 2 5.0 0.0 -1 12
+ 0.563542 1 0 ping 64 ------- 2 5.0 0.0 -1 12
- 0.563542 1 0 ping 64 ------- 2 5.0 0.0 -1 12
r 0.563644 1 0 ping 64 ------- 2 5.0 0.0 -1 12
+ 0.563644 0 1 ping 64 ------- 1 0.0 5.0 -1 24
- 0.563644 0 1 ping 64 ------- 1 0.0 5.0 -1 24
r 0.563745 0 1 ping 64 ------- 1 0.0 5.0 -1 24
+ 0.563745 1 2 ping 64 ------- 1 0.0 5.0 -1 24
- 0.563745 1 2 ping 64 ------- 1 0.0 5.0 -1 24
r 0.573782 2 1 ping 64 ------- 2 5.0 0.0 -1 13
+ 0.573782 1 0 ping 64 ------- 2 5.0 0.0 -1 13
- 0.573782 1 0 ping 64 ------- 2 5.0 0.0 -1 13
r 0.573884 1 0 ping 64 ------- 2 5.0 0.0 -1 13
+ 0.573884 0 1 ping 64 ------- 1 0.0 5.0 -1 25
- 0.573884 0 1 ping 64 ------- 1 0.0 5.0 -1 25
r 0.573985 0 1 ping 64 ------- 1 0.0 5.0 -1 25
+ 0.573985 1 2 ping 64 ------- 1 0.0 5.0 -1 25
- 0.573985 1 2 ping 64 ------- 1 0.0 5.0 -1 25
r 0.584022 2 1 ping 64 ------- 2 5.0 0.0 -1 14
+ 0.584022 1 0 ping 64 ------- 2 5.0 0.0 -1 14
- 0.584022 1 0 ping 64 ------- 2 5.0 0.0 -1 14
r 0.584124 1 0 ping 64 ------- 2 5.0 0.0 -1 14
+ 0.584124 0 1 ping 64 ------- 1 0.0 5.0 -1 26
- 0.584124 0 1 ping 64 ------- 1 0.0 5.0 -1 26
r 0.584225 0 1 ping 64 ------- 1 0.0 5.0 -1 26
+ 0.584225 1 2 ping 64 ------- 1 0.0 5.0 -1 26
- 0.584225 1 2 ping 64 ------- 1 0.0 5.0 -1 26
r 0.622582 1 2 ping 64 ------- 3 1.0 4.0 -1 19
+ 0.622582 2 3 ping 64 ------- 3 1.0 4.0 -1 19
- 0.622582 2 3 ping 64 ------- 3 1.0 4.0 -1 19
r 0.623634 2 3 ping 64 ------- 3 1.0 4.0 -1 19
+ 0.623634 3 4 ping 64 ------- 3 1.0 4.0 -1 19
- 0.623634 3 4 ping 64 ------- 3 1.0 4.0 -1 19
r 0.624685 3 4 ping 64 ------- 3 1.0 4.0 -1 19
r 0.632822 1 2 ping 64 ------- 3 1.0 4.0 -1 20
+ 0.632822 2 3 ping 64 ------- 3 1.0 4.0 -1 20
- 0.632822 2 3 ping 64 ------- 3 1.0 4.0 -1 20
r 0.633874 2 3 ping 64 ------- 3 1.0 4.0 -1 20
+ 0.633874 3 4 ping 64 ------- 3 1.0 4.0 -1 20
- 0.633874 3 4 ping 64 ------- 3 1.0 4.0 -1 20
r 0.634925 3 4 ping 64 ------- 3 1.0 4.0 -1 20
r 0.643062 1 2 ping 64 ------- 3 1.0 4.0 -1 21
+ 0.643062 2 3 ping 64 ------- 3 1.0 4.0 -1 21
- 0.643062 2 3 ping 64 ------- 3 1.0 4.0 -1 21
r 0.644114 2 3 ping 64 ------- 3 1.0 4.0 -1 21
+ 0.644114 3 4 ping 64 ------- 3 1.0 4.0 -1 21
- 0.644114 3 4 ping 64 ------- 3 1.0 4.0 -1 21
r 0.645165 3 4 ping 64 ------- 3 1.0 4.0 -1 21
r 0.653302 1 2 ping 64 ------- 3 1.0 4.0 -1 22
+ 0.653302 2 3 ping 64 ------- 3 1.0 4.0 -1 22
- 0.653302 2 3 ping 64 ------- 3 1.0 4.0 -1 22
r 0.654354 2 3 ping 64 ------- 3 1.0 4.0 -1 22
+ 0.654354 3 4 ping 64 ------- 3 1.0 4.0 -1 22
- 0.654354 3 4 ping 64 ------- 3 1.0 4.0 -1 22
r 0.655405 3 4 ping 64 ------- 3 1.0 4.0 -1 22
r 0.663745 1 2 ping 64 ------- 1 0.0 5.0 -1 23
+ 0.663745 2 3 ping 64 ------- 1 0.0 5.0 -1 23
- 0.663745 2 3 ping 64 ------- 1 0.0 5.0 -1 23
r 0.664796 2 3 ping 64 ------- 1 0.0 5.0 -1 23
+ 0.664796 3 4 ping 64 ------- 1 0.0 5.0 -1 23
- 0.664796 3 4 ping 64 ------- 1 0.0 5.0 -1 23
r 0.665847 3 4 ping 64 ------- 1 0.0 5.0 -1 23
+ 0.665847 4 5 ping 64 ------- 1 0.0 5.0 -1 23
- 0.665847 4 5 ping 64 ------- 1 0.0 5.0 -1 23
r 0.666898 4 5 ping 64 ------- 1 0.0 5.0 -1 23
r 0.673985 1 2 ping 64 ------- 1 0.0 5.0 -1 24
+ 0.673985 2 3 ping 64 ------- 1 0.0 5.0 -1 24
- 0.673985 2 3 ping 64 ------- 1 0.0 5.0 -1 24
r 0.675036 2 3 ping 64 ------- 1 0.0 5.0 -1 24
+ 0.675036 3 4 ping 64 ------- 1 0.0 5.0 -1 24
- 0.675036 3 4 ping 64 ------- 1 0.0 5.0 -1 24
r 0.676087 3 4 ping 64 ------- 1 0.0 5.0 -1 24
+ 0.676087 4 5 ping 64 ------- 1 0.0 5.0 -1 24
- 0.676087 4 5 ping 64 ------- 1 0.0 5.0 -1 24
r 0.677138 4 5 ping 64 ------- 1 0.0 5.0 -1 24
r 0.684225 1 2 ping 64 ------- 1 0.0 5.0 -1 25
+ 0.684225 2 3 ping 64 ------- 1 0.0 5.0 -1 25
- 0.684225 2 3 ping 64 ------- 1 0.0 5.0 -1 25
r 0.685276 2 3 ping 64 ------- 1 0.0 5.0 -1 25
+ 0.685276 3 4 ping 64 ------- 1 0.0 5.0 -1 25
- 0.685276 3 4 ping 64 ------- 1 0.0 5.0 -1 25
r 0.686327 3 4 ping 64 ------- 1 0.0 5.0 -1 25
+ 0.686327 4 5 ping 64 ------- 1 0.0 5.0 -1 25
- 0.686327 4 5 ping 64 ------- 1 0.0 5.0 -1 25
r 0.687378 4 5 ping 64 ------- 1 0.0 5.0 -1 25
r 0.694465 1 2 ping 64 ------- 1 0.0 5.0 -1 26
+ 0.694465 2 3 ping 64 ------- 1 0.0 5.0 -1 26
- 0.694465 2 3 ping 64 ------- 1 0.0 5.0 -1 26
r 0.695516 2 3 ping 64 ------- 1 0.0 5.0 -1 26
+ 0.695516 3 4 ping 64 ------- 1 0.0 5.0 -1 26
- 0.695516 3 4 ping 64 ------- 1 0.0 5.0 -1 26
r 0.696567 3 4 ping 64 ------- 1 0.0 5.0 -1 26
+ 0.696567 4 5 ping 64 ------- 1 0.0 5.0 -1 26
- 0.696567 4 5 ping 64 ------- 1 0.0 5.0 -1 26
r 0.697618 4 5 ping 64 ------- 1 0.0 5.0 -1 26
